# vtk DataFile Version 3.0
#This file was generated by the deal.II library on 2017/7/23 at 21:31:00
ASCII
DATASET UNSTRUCTURED_GRID

POINTS 16384 double
-1e-06 -1e-06 0
-9.6875e-07 -1e-06 0
-1e-06 -9.6875e-07 0
-9.6875e-07 -9.6875e-07 0
-9.6875e-07 -1e-06 0
-9.375e-07 -1e-06 0
-9.6875e-07 -9.6875e-07 0
-9.375e-07 -9.6875e-07 0
-1e-06 -9.6875e-07 0
-9.6875e-07 -9.6875e-07 0
-1e-06 -9.375e-07 0
-9.6875e-07 -9.375e-07 0
-9.6875e-07 -9.6875e-07 0
-9.375e-07 -9.6875e-07 0
-9.6875e-07 -9.375e-07 0
-9.375e-07 -9.375e-07 0
-9.375e-07 -1e-06 0
-9.0625e-07 -1e-06 0
-9.375e-07 -9.6875e-07 0
-9.0625e-07 -9.6875e-07 0
-9.0625e-07 -1e-06 0
-8.75e-07 -1e-06 0
-9.0625e-07 -9.6875e-07 0
-8.75e-07 -9.6875e-07 0
-9.375e-07 -9.6875e-07 0
-9.0625e-07 -9.6875e-07 0
-9.375e-07 -9.375e-07 0
-9.0625e-07 -9.375e-07 0
-9.0625e-07 -9.6875e-07 0
-8.75e-07 -9.6875e-07 0
-9.0625e-07 -9.375e-07 0
-8.75e-07 -9.375e-07 0
-1e-06 -9.375e-07 0
-9.6875e-07 -9.375e-07 0
-1e-06 -9.0625e-07 0
-9.6875e-07 -9.0625e-07 0
-9.6875e-07 -9.375e-07 0
-9.375e-07 -9.375e-07 0
-9.6875e-07 -9.0625e-07 0
-9.375e-07 -9.0625e-07 0
-1e-06 -9.0625e-07 0
-9.6875e-07 -9.0625e-07 0
-1e-06 -8.75e-07 0
-9.6875e-07 -8.75e-07 0
-9.6875e-07 -9.0625e-07 0
-9.375e-07 -9.0625e-07 0
-9.6875e-07 -8.75e-07 0
-9.375e-07 -8.75e-07 0
-9.375e-07 -9.375e-07 0
-9.0625e-07 -9.375e-07 0
-9.375e-07 -9.0625e-07 0
-9.0625e-07 -9.0625e-07 0
-9.0625e-07 -9.375e-07 0
-8.75e-07 -9.375e-07 0
-9.0625e-07 -9.0625e-07 0
-8.75e-07 -9.0625e-07 0
-9.375e-07 -9.0625e-07 0
-9.0625e-07 -9.0625e-07 0
-9.375e-07 -8.75e-07 0
-9.0625e-07 -8.75e-07 0
-9.0625e-07 -9.0625e-07 0
-8.75e-07 -9.0625e-07 0
-9.0625e-07 -8.75e-07 0
-8.75e-07 -8.75e-07 0
-8.75e-07 -1e-06 0
-8.4375e-07 -1e-06 0
-8.75e-07 -9.6875e-07 0
-8.4375e-07 -9.6875e-07 0
-8.4375e-07 -1e-06 0
-8.125e-07 -1e-06 0
-8.4375e-07 -9.6875e-07 0
-8.125e-07 -9.6875e-07 0
-8.75e-07 -9.6875e-07 0
-8.4375e-07 -9.6875e-07 0
-8.75e-07 -9.375e-07 0
-8.4375e-07 -9.375e-07 0
-8.4375e-07 -9.6875e-07 0
-8.125e-07 -9.6875e-07 0
-8.4375e-07 -9.375e-07 0
-8.125e-07 -9.375e-07 0
-8.125e-07 -1e-06 0
-7.8125e-07 -1e-06 0
-8.125e-07 -9.6875e-07 0
-7.8125e-07 -9.6875e-07 0
-7.8125e-07 -1e-06 0
-7.5e-07 -1e-06 0
-7.8125e-07 -9.6875e-07 0
-7.5e-07 -9.6875e-07 0
-8.125e-07 -9.6875e-07 0
-7.8125e-07 -9.6875e-07 0
-8.125e-07 -9.375e-07 0
-7.8125e-07 -9.375e-07 0
-7.8125e-07 -9.6875e-07 0
-7.5e-07 -9.6875e-07 0
-7.8125e-07 -9.375e-07 0
-7.5e-07 -9.375e-07 0
-8.75e-07 -9.375e-07 0
-8.4375e-07 -9.375e-07 0
-8.75e-07 -9.0625e-07 0
-8.4375e-07 -9.0625e-07 0
-8.4375e-07 -9.375e-07 0
-8.125e-07 -9.375e-07 0
-8.4375e-07 -9.0625e-07 0
-8.125e-07 -9.0625e-07 0
-8.75e-07 -9.0625e-07 0
-8.4375e-07 -9.0625e-07 0
-8.75e-07 -8.75e-07 0
-8.4375e-07 -8.75e-07 0
-8.4375e-07 -9.0625e-07 0
-8.125e-07 -9.0625e-07 0
-8.4375e-07 -8.75e-07 0
-8.125e-07 -8.75e-07 0
-8.125e-07 -9.375e-07 0
-7.8125e-07 -9.375e-07 0
-8.125e-07 -9.0625e-07 0
-7.8125e-07 -9.0625e-07 0
-7.8125e-07 -9.375e-07 0
-7.5e-07 -9.375e-07 0
-7.8125e-07 -9.0625e-07 0
-7.5e-07 -9.0625e-07 0
-8.125e-07 -9.0625e-07 0
-7.8125e-07 -9.0625e-07 0
-8.125e-07 -8.75e-07 0
-7.8125e-07 -8.75e-07 0
-7.8125e-07 -9.0625e-07 0
-7.5e-07 -9.0625e-07 0
-7.8125e-07 -8.75e-07 0
-7.5e-07 -8.75e-07 0
-1e-06 -8.75e-07 0
-9.6875e-07 -8.75e-07 0
-1e-06 -8.4375e-07 0
-9.6875e-07 -8.4375e-07 0
-9.6875e-07 -8.75e-07 0
-9.375e-07 -8.75e-07 0
-9.6875e-07 -8.4375e-07 0
-9.375e-07 -8.4375e-07 0
-1e-06 -8.4375e-07 0
-9.6875e-07 -8.4375e-07 0
-1e-06 -8.125e-07 0
-9.6875e-07 -8.125e-07 0
-9.6875e-07 -8.4375e-07 0
-9.375e-07 -8.4375e-07 0
-9.6875e-07 -8.125e-07 0
-9.375e-07 -8.125e-07 0
-9.375e-07 -8.75e-07 0
-9.0625e-07 -8.75e-07 0
-9.375e-07 -8.4375e-07 0
-9.0625e-07 -8.4375e-07 0
-9.0625e-07 -8.75e-07 0
-8.75e-07 -8.75e-07 0
-9.0625e-07 -8.4375e-07 0
-8.75e-07 -8.4375e-07 0
-9.375e-07 -8.4375e-07 0
-9.0625e-07 -8.4375e-07 0
-9.375e-07 -8.125e-07 0
-9.0625e-07 -8.125e-07 0
-9.0625e-07 -8.4375e-07 0
-8.75e-07 -8.4375e-07 0
-9.0625e-07 -8.125e-07 0
-8.75e-07 -8.125e-07 0
-1e-06 -8.125e-07 0
-9.6875e-07 -8.125e-07 0
-1e-06 -7.8125e-07 0
-9.6875e-07 -7.8125e-07 0
-9.6875e-07 -8.125e-07 0
-9.375e-07 -8.125e-07 0
-9.6875e-07 -7.8125e-07 0
-9.375e-07 -7.8125e-07 0
-1e-06 -7.8125e-07 0
-9.6875e-07 -7.8125e-07 0
-1e-06 -7.5e-07 0
-9.6875e-07 -7.5e-07 0
-9.6875e-07 -7.8125e-07 0
-9.375e-07 -7.8125e-07 0
-9.6875e-07 -7.5e-07 0
-9.375e-07 -7.5e-07 0
-9.375e-07 -8.125e-07 0
-9.0625e-07 -8.125e-07 0
-9.375e-07 -7.8125e-07 0
-9.0625e-07 -7.8125e-07 0
-9.0625e-07 -8.125e-07 0
-8.75e-07 -8.125e-07 0
-9.0625e-07 -7.8125e-07 0
-8.75e-07 -7.8125e-07 0
-9.375e-07 -7.8125e-07 0
-9.0625e-07 -7.8125e-07 0
-9.375e-07 -7.5e-07 0
-9.0625e-07 -7.5e-07 0
-9.0625e-07 -7.8125e-07 0
-8.75e-07 -7.8125e-07 0
-9.0625e-07 -7.5e-07 0
-8.75e-07 -7.5e-07 0
-8.75e-07 -8.75e-07 0
-8.4375e-07 -8.75e-07 0
-8.75e-07 -8.4375e-07 0
-8.4375e-07 -8.4375e-07 0
-8.4375e-07 -8.75e-07 0
-8.125e-07 -8.75e-07 0
-8.4375e-07 -8.4375e-07 0
-8.125e-07 -8.4375e-07 0
-8.75e-07 -8.4375e-07 0
-8.4375e-07 -8.4375e-07 0
-8.75e-07 -8.125e-07 0
-8.4375e-07 -8.125e-07 0
-8.4375e-07 -8.4375e-07 0
-8.125e-07 -8.4375e-07 0
-8.4375e-07 -8.125e-07 0
-8.125e-07 -8.125e-07 0
-8.125e-07 -8.75e-07 0
-7.8125e-07 -8.75e-07 0
-8.125e-07 -8.4375e-07 0
-7.8125e-07 -8.4375e-07 0
-7.8125e-07 -8.75e-07 0
-7.5e-07 -8.75e-07 0
-7.8125e-07 -8.4375e-07 0
-7.5e-07 -8.4375e-07 0
-8.125e-07 -8.4375e-07 0
-7.8125e-07 -8.4375e-07 0
-8.125e-07 -8.125e-07 0
-7.8125e-07 -8.125e-07 0
-7.8125e-07 -8.4375e-07 0
-7.5e-07 -8.4375e-07 0
-7.8125e-07 -8.125e-07 0
-7.5e-07 -8.125e-07 0
-8.75e-07 -8.125e-07 0
-8.4375e-07 -8.125e-07 0
-8.75e-07 -7.8125e-07 0
-8.4375e-07 -7.8125e-07 0
-8.4375e-07 -8.125e-07 0
-8.125e-07 -8.125e-07 0
-8.4375e-07 -7.8125e-07 0
-8.125e-07 -7.8125e-07 0
-8.75e-07 -7.8125e-07 0
-8.4375e-07 -7.8125e-07 0
-8.75e-07 -7.5e-07 0
-8.4375e-07 -7.5e-07 0
-8.4375e-07 -7.8125e-07 0
-8.125e-07 -7.8125e-07 0
-8.4375e-07 -7.5e-07 0
-8.125e-07 -7.5e-07 0
-8.125e-07 -8.125e-07 0
-7.8125e-07 -8.125e-07 0
-8.125e-07 -7.8125e-07 0
-7.8125e-07 -7.8125e-07 0
-7.8125e-07 -8.125e-07 0
-7.5e-07 -8.125e-07 0
-7.8125e-07 -7.8125e-07 0
-7.5e-07 -7.8125e-07 0
-8.125e-07 -7.8125e-07 0
-7.8125e-07 -7.8125e-07 0
-8.125e-07 -7.5e-07 0
-7.8125e-07 -7.5e-07 0
-7.8125e-07 -7.8125e-07 0
-7.5e-07 -7.8125e-07 0
-7.8125e-07 -7.5e-07 0
-7.5e-07 -7.5e-07 0
-7.5e-07 -1e-06 0
-7.1875e-07 -1e-06 0
-7.5e-07 -9.6875e-07 0
-7.1875e-07 -9.6875e-07 0
-7.1875e-07 -1e-06 0
-6.875e-07 -1e-06 0
-7.1875e-07 -9.6875e-07 0
-6.875e-07 -9.6875e-07 0
-7.5e-07 -9.6875e-07 0
-7.1875e-07 -9.6875e-07 0
-7.5e-07 -9.375e-07 0
-7.1875e-07 -9.375e-07 0
-7.1875e-07 -9.6875e-07 0
-6.875e-07 -9.6875e-07 0
-7.1875e-07 -9.375e-07 0
-6.875e-07 -9.375e-07 0
-6.875e-07 -1e-06 0
-6.5625e-07 -1e-06 0
-6.875e-07 -9.6875e-07 0
-6.5625e-07 -9.6875e-07 0
-6.5625e-07 -1e-06 0
-6.25e-07 -1e-06 0
-6.5625e-07 -9.6875e-07 0
-6.25e-07 -9.6875e-07 0
-6.875e-07 -9.6875e-07 0
-6.5625e-07 -9.6875e-07 0
-6.875e-07 -9.375e-07 0
-6.5625e-07 -9.375e-07 0
-6.5625e-07 -9.6875e-07 0
-6.25e-07 -9.6875e-07 0
-6.5625e-07 -9.375e-07 0
-6.25e-07 -9.375e-07 0
-7.5e-07 -9.375e-07 0
-7.1875e-07 -9.375e-07 0
-7.5e-07 -9.0625e-07 0
-7.1875e-07 -9.0625e-07 0
-7.1875e-07 -9.375e-07 0
-6.875e-07 -9.375e-07 0
-7.1875e-07 -9.0625e-07 0
-6.875e-07 -9.0625e-07 0
-7.5e-07 -9.0625e-07 0
-7.1875e-07 -9.0625e-07 0
-7.5e-07 -8.75e-07 0
-7.1875e-07 -8.75e-07 0
-7.1875e-07 -9.0625e-07 0
-6.875e-07 -9.0625e-07 0
-7.1875e-07 -8.75e-07 0
-6.875e-07 -8.75e-07 0
-6.875e-07 -9.375e-07 0
-6.5625e-07 -9.375e-07 0
-6.875e-07 -9.0625e-07 0
-6.5625e-07 -9.0625e-07 0
-6.5625e-07 -9.375e-07 0
-6.25e-07 -9.375e-07 0
-6.5625e-07 -9.0625e-07 0
-6.25e-07 -9.0625e-07 0
-6.875e-07 -9.0625e-07 0
-6.5625e-07 -9.0625e-07 0
-6.875e-07 -8.75e-07 0
-6.5625e-07 -8.75e-07 0
-6.5625e-07 -9.0625e-07 0
-6.25e-07 -9.0625e-07 0
-6.5625e-07 -8.75e-07 0
-6.25e-07 -8.75e-07 0
-6.25e-07 -1e-06 0
-5.9375e-07 -1e-06 0
-6.25e-07 -9.6875e-07 0
-5.9375e-07 -9.6875e-07 0
-5.9375e-07 -1e-06 0
-5.625e-07 -1e-06 0
-5.9375e-07 -9.6875e-07 0
-5.625e-07 -9.6875e-07 0
-6.25e-07 -9.6875e-07 0
-5.9375e-07 -9.6875e-07 0
-6.25e-07 -9.375e-07 0
-5.9375e-07 -9.375e-07 0
-5.9375e-07 -9.6875e-07 0
-5.625e-07 -9.6875e-07 0
-5.9375e-07 -9.375e-07 0
-5.625e-07 -9.375e-07 0
-5.625e-07 -1e-06 0
-5.3125e-07 -1e-06 0
-5.625e-07 -9.6875e-07 0
-5.3125e-07 -9.6875e-07 0
-5.3125e-07 -1e-06 0
-5e-07 -1e-06 0
-5.3125e-07 -9.6875e-07 0
-5e-07 -9.6875e-07 0
-5.625e-07 -9.6875e-07 0
-5.3125e-07 -9.6875e-07 0
-5.625e-07 -9.375e-07 0
-5.3125e-07 -9.375e-07 0
-5.3125e-07 -9.6875e-07 0
-5e-07 -9.6875e-07 0
-5.3125e-07 -9.375e-07 0
-5e-07 -9.375e-07 0
-6.25e-07 -9.375e-07 0
-5.9375e-07 -9.375e-07 0
-6.25e-07 -9.0625e-07 0
-5.9375e-07 -9.0625e-07 0
-5.9375e-07 -9.375e-07 0
-5.625e-07 -9.375e-07 0
-5.9375e-07 -9.0625e-07 0
-5.625e-07 -9.0625e-07 0
-6.25e-07 -9.0625e-07 0
-5.9375e-07 -9.0625e-07 0
-6.25e-07 -8.75e-07 0
-5.9375e-07 -8.75e-07 0
-5.9375e-07 -9.0625e-07 0
-5.625e-07 -9.0625e-07 0
-5.9375e-07 -8.75e-07 0
-5.625e-07 -8.75e-07 0
-5.625e-07 -9.375e-07 0
-5.3125e-07 -9.375e-07 0
-5.625e-07 -9.0625e-07 0
-5.3125e-07 -9.0625e-07 0
-5.3125e-07 -9.375e-07 0
-5e-07 -9.375e-07 0
-5.3125e-07 -9.0625e-07 0
-5e-07 -9.0625e-07 0
-5.625e-07 -9.0625e-07 0
-5.3125e-07 -9.0625e-07 0
-5.625e-07 -8.75e-07 0
-5.3125e-07 -8.75e-07 0
-5.3125e-07 -9.0625e-07 0
-5e-07 -9.0625e-07 0
-5.3125e-07 -8.75e-07 0
-5e-07 -8.75e-07 0
-7.5e-07 -8.75e-07 0
-7.1875e-07 -8.75e-07 0
-7.5e-07 -8.4375e-07 0
-7.1875e-07 -8.4375e-07 0
-7.1875e-07 -8.75e-07 0
-6.875e-07 -8.75e-07 0
-7.1875e-07 -8.4375e-07 0
-6.875e-07 -8.4375e-07 0
-7.5e-07 -8.4375e-07 0
-7.1875e-07 -8.4375e-07 0
-7.5e-07 -8.125e-07 0
-7.1875e-07 -8.125e-07 0
-7.1875e-07 -8.4375e-07 0
-6.875e-07 -8.4375e-07 0
-7.1875e-07 -8.125e-07 0
-6.875e-07 -8.125e-07 0
-6.875e-07 -8.75e-07 0
-6.5625e-07 -8.75e-07 0
-6.875e-07 -8.4375e-07 0
-6.5625e-07 -8.4375e-07 0
-6.5625e-07 -8.75e-07 0
-6.25e-07 -8.75e-07 0
-6.5625e-07 -8.4375e-07 0
-6.25e-07 -8.4375e-07 0
-6.875e-07 -8.4375e-07 0
-6.5625e-07 -8.4375e-07 0
[...]
POINT_DATA 16384
SCALARS x_displacement double 1
LOOKUP_TABLE default
1.09852e-11 1.09881e-11 1.45398e-11 1.4537e-11 1.09881e-11 1.10075e-11 1.4537e-11 1.45352e-11 1.45398e-11 1.4537e-11 1.81109e-11 1.81025e-11 1.4537e-11 1.45352e-11 1.81025e-11 1.80954e-11 1.10075e-11 1.10363e-11 1.45352e-11 1.45232e-11 1.10363e-11 1.10556e-11 1.45232e-11 1.44872e-11 1.45352e-11 1.45232e-11 1.80954e-11 1.80713e-11 1.45232e-11 1.44872e-11 1.80713e-11 1.80154e-11 1.81109e-11 1.81025e-11 2.17313e-11 2.17263e-11 1.81025e-11 1.80954e-11 2.17263e-11 2.17266e-11 2.17313e-11 2.17263e-11 2.54257e-11 2.54341e-11 2.17263e-11 2.17266e-11 2.54341e-11 2.54518e-11 1.80954e-11 1.80713e-11 2.17266e-11 2.17084e-11 1.80713e-11 1.80154e-11 2.17084e-11 2.16549e-11 2.17266e-11 2.17084e-11 2.54518e-11 2.54518e-11 2.17084e-11 2.16549e-11 2.54518e-11 2.54153e-11 1.10556e-11 1.10436e-11 1.44872e-11 1.44126e-11 1.10436e-11 1.0979e-11 1.44126e-11 1.42847e-11 1.44872e-11 1.44126e-11 1.80154e-11 1.79151e-11 1.44126e-11 1.42847e-11 1.79151e-11 1.77586e-11 1.0979e-11 1.08428e-11 1.42847e-11 1.40893e-11 1.08428e-11 1.06184e-11 1.40893e-11 1.38143e-11 1.42847e-11 1.40893e-11 1.77586e-11 1.75352e-11 1.40893e-11 1.38143e-11 1.75352e-11 1.72356e-11 1.80154e-11 1.79151e-11 2.16549e-11 2.15531e-11 1.79151e-11 1.77586e-11 2.15531e-11 2.13923e-11 2.16549e-11 2.15531e-11 2.54153e-11 2.53283e-11 2.15531e-11 2.13923e-11 2.53283e-11 2.518e-11 1.77586e-11 1.75352e-11 2.13923e-11 2.11634e-11 1.75352e-11 1.72356e-11 2.11634e-11 2.08584e-11 2.13923e-11 2.11634e-11 2.518e-11 2.49616e-11 2.11634e-11 2.08584e-11 2.49616e-11 2.46657e-11 2.54257e-11 2.54341e-11 2.92075e-11 2.92395e-11 2.54341e-11 2.54518e-11 2.92395e-11 2.92832e-11 2.92075e-11 2.92395e-11 3.30812e-11 3.31467e-11 2.92395e-11 2.92832e-11 3.31467e-11 3.32245e-11 2.54518e-11 2.54518e-11 2.92832e-11 2.93105e-11 2.54518e-11 2.54153e-11 2.93105e-11 2.93012e-11 2.92832e-11 2.93105e-11 3.32245e-11 3.32865e-11 2.93105e-11 2.93012e-11 3.32865e-11 3.3312e-11 3.30812e-11 3.31467e-11 3.7045e-11 3.71534e-11 3.31467e-11 3.32245e-11 3.71534e-11 3.72727e-11 3.7045e-11 3.71534e-11 4.10922e-11 4.12522e-11 3.71534e-11 3.72727e-11 4.12522e-11 4.142e-11 3.32245e-11 3.32865e-11 3.72727e-11 3.7376e-11 3.32865e-11 3.3312e-11 3.7376e-11 3.74425e-11 3.72727e-11 3.7376e-11 4.142e-11 4.15705e-11 3.7376e-11 3.74425e-11 4.15705e-11 4.16836e-11 2.54153e-11 2.53283e-11 2.93012e-11 2.92402e-11 2.53283e-11 2.518e-11 2.92402e-11 2.91161e-11 2.93012e-11 2.92402e-11 3.3312e-11 3.32852e-11 2.92402e-11 2.91161e-11 3.32852e-11 3.3194e-11 2.518e-11 2.49616e-11 2.91161e-11 2.89199e-11 2.49616e-11 2.46657e-11 2.89199e-11 2.8644e-11 2.91161e-11 2.89199e-11 3.3194e-11 3.30289e-11 2.89199e-11 2.8644e-11 3.30289e-11 3.27819e-11 3.3312e-11 3.32852e-11 3.74425e-11 3.74564e-11 3.32852e-11 3.3194e-11 3.74564e-11 3.7405e-11 3.74425e-11 3.74564e-11 4.16836e-11 4.17437e-11 3.74564e-11 3.7405e-11 4.17437e-11 4.1738e-11 3.3194e-11 3.30289e-11 3.7405e-11 3.72783e-11 3.30289e-11 3.27819e-11 3.72783e-11 3.7068e-11 3.7405e-11 3.72783e-11 4.1738e-11 4.16564e-11 3.72783e-11 3.7068e-11 4.16564e-11 4.14899e-11 1.06184e-11 1.02926e-11 1.38143e-11 1.34494e-11 1.02926e-11 9.85515e-12 1.34494e-11 1.29867e-11 1.38143e-11 1.34494e-11 1.72356e-11 1.68515e-11 1.34494e-11 1.29867e-11 1.68515e-11 1.63767e-11 9.85515e-12 9.29955e-12 1.29867e-11 1.24208e-11 9.29955e-12 8.62273e-12 1.24208e-11 1.17495e-11 1.29867e-11 1.24208e-11 1.63767e-11 1.58066e-11 1.24208e-11 1.17495e-11 1.58066e-11 1.5139e-11 1.72356e-11 1.68515e-11 2.08584e-11 2.04705e-11 1.68515e-11 1.63767e-11 2.04705e-11 1.99941e-11 2.08584e-11 2.04705e-11 2.46657e-11 2.42858e-11 2.04705e-11 1.99941e-11 2.42858e-11 2.38166e-11 1.63767e-11 1.58066e-11 1.99941e-11 1.9425e-11 1.58066e-11 1.5139e-11 1.9425e-11 1.87602e-11 1.99941e-11 1.9425e-11 2.38166e-11 2.32534e-11 1.9425e-11 1.87602e-11 2.32534e-11 2.25925e-11 8.62273e-12 7.82552e-12 1.17495e-11 1.09733e-11 7.82552e-12 6.91285e-12 1.09733e-11 1.00961e-11 1.17495e-11 1.09733e-11 1.5139e-11 1.43736e-11 1.09733e-11 1.00961e-11 1.43736e-11 1.35129e-11 6.91285e-12 5.89408e-12 1.00961e-11 9.12535e-12 5.89408e-12 4.78322e-12 9.12535e-12 8.07227e-12 1.00961e-11 9.12535e-12 1.35129e-11 1.25619e-11 9.12535e-12 8.07227e-12 1.25619e-11 1.15284e-11 1.5139e-11 1.43736e-11 1.87602e-11 1.79986e-11 1.43736e-11 1.35129e-11 1.79986e-11 1.71406e-11 1.87602e-11 1.79986e-11 2.25925e-11 2.18312e-11 1.79986e-11 1.71406e-11 2.18312e-11 2.09677e-11 1.35129e-11 1.25619e-11 1.71406e-11 1.61885e-11 1.25619e-11 1.15284e-11 1.61885e-11 1.51467e-11 1.71406e-11 1.61885e-11 2.09677e-11 2.00015e-11 1.61885e-11 1.51467e-11 2.00015e-11 1.89334e-11 2.46657e-11 2.42858e-11 2.8644e-11 2.82819e-11 2.42858e-11 2.38166e-11 2.82819e-11 2.78277e-11 2.8644e-11 2.82819e-11 3.27819e-11 3.2446e-11 2.82819e-11 2.78277e-11 3.2446e-11 3.20146e-11 2.38166e-11 2.32534e-11 2.78277e-11 2.72762e-11 2.32534e-11 2.25925e-11 2.72762e-11 2.66225e-11 2.78277e-11 2.72762e-11 3.20146e-11 3.14817e-11 2.72762e-11 2.66225e-11 3.14817e-11 3.08408e-11 3.27819e-11 3.2446e-11 3.7068e-11 3.67662e-11 3.2446e-11 3.20146e-11 3.67662e-11 3.6366e-11 3.7068e-11 3.67662e-11 4.14899e-11 4.12304e-11 3.67662e-11 3.6366e-11 4.12304e-11 4.08701e-11 3.20146e-11 3.14817e-11 3.6366e-11 3.58599e-11 3.14817e-11 3.08408e-11 3.58599e-11 3.52404e-11 3.6366e-11 3.58599e-11 4.08701e-11 4.04008e-11 3.58599e-11 3.52404e-11 4.04008e-11 3.98138e-11 2.25925e-11 2.18312e-11 2.66225e-11 2.58619e-11 2.18312e-11 2.09677e-11 2.58619e-11 2.49906e-11 2.66225e-11 2.58619e-11 3.08408e-11 3.00857e-11 2.58619e-11 2.49906e-11 3.00857e-11 2.921e-11 2.09677e-11 2.00015e-11 2.49906e-11 2.40049e-11 2.00015e-11 1.89334e-11 2.40049e-11 2.29022e-11 2.49906e-11 2.40049e-11 2.921e-11 2.82072e-11 2.40049e-11 2.29022e-11 2.82072e-11 2.7071e-11 3.08408e-11 3.00857e-11 3.52404e-11 3.44995e-11 3.00857e-11 2.921e-11 3.44995e-11 3.36285e-11 3.52404e-11 3.44995e-11 3.98138e-11 3.90996e-11 3.44995e-11 3.36285e-11 3.90996e-11 3.82474e-11 2.921e-11 2.82072e-11 3.36285e-11 3.2618e-11 2.82072e-11 2.7071e-11 3.2618e-11 3.14584e-11 3.36285e-11 3.2618e-11 3.82474e-11 3.72454e-11 3.2618e-11 3.14584e-11 3.72454e-11 3.60808e-11 4.10922e-11 4.12522e-11 4.52119e-11 4.54315e-11 4.12522e-11 4.142e-11 4.54315e-11 4.56544e-11 4.52119e-11 4.54315e-11 4.93903e-11 4.96767e-11 4.54315e-11 4.56544e-11 4.96767e-11 4.99608e-11 4.142e-11 4.15705e-11 4.56544e-11 4.58577e-11 4.15705e-11 4.16836e-11 4.58577e-11 4.60226e-11 4.56544e-11 4.58577e-11 4.99608e-11 5.0222e-11 4.58577e-11 4.60226e-11 5.0222e-11 5.04433e-11 4.93903e-11 4.96767e-11 5.36109e-11 5.39704e-11 4.96767e-11 4.99608e-11 5.39704e-11 5.43211e-11 5.36109e-11 5.39704e-11 5.78548e-11 5.8293e-11 5.39704e-11 5.43211e-11 5.8293e-11 5.87151e-11 4.99608e-11 5.0222e-11 5.43211e-11 5.46451e-11 5.0222e-11 5.04433e-11 5.46451e-11 5.49272e-11 5.43211e-11 5.46451e-11 5.87151e-11 5.91059e-11 5.46451e-11 5.49272e-11 5.91059e-11 5.94529e-11 4.16836e-11 4.17437e-11 4.60226e-11 4.61339e-11 4.17437e-11 4.1738e-11 4.61339e-11 4.61794e-11 4.60226e-11 4.61339e-11 5.04433e-11 5.06107e-11 4.61339e-11 4.61794e-11 5.06107e-11 5.07126e-11 4.1738e-11 4.16564e-11 4.61794e-11 4.61489e-11 4.16564e-11 4.14899e-11 4.61489e-11 4.60334e-11 4.61794e-11 4.61489e-11 5.07126e-11 5.07392e-11 4.61489e-11 4.60334e-11 5.07392e-11 5.06817e-11 5.04433e-11 5.06107e-11 5.49272e-11 5.51551e-11 5.06107e-11 5.07126e-11 5.51551e-11 5.53183e-11 5.49272e-11 5.51551e-11 5.94529e-11 5.97454e-11 5.51551e-11 5.53183e-11 5.97454e-11 5.99744e-11 5.07126e-11 5.07392e-11 5.53183e-11 5.54077e-11 5.07392e-11 5.06817e-11 5.54077e-11 5.54151e-11 5.53183e-11 5.54077e-11 5.99744e-11 6.0132e-11 5.54077e-11 5.54151e-11 6.0132e-11 6.02109e-11 5.78548e-11 5.8293e-11 6.21015e-11 6.26229e-11 5.8293e-11 5.87151e-11 6.26229e-11 6.31203e-11 6.21015e-11 6.26229e-11 6.63286e-11 6.6937e-11 6.26229e-11 6.31203e-11 6.6937e-11 6.75128e-11 5.87151e-11 5.91059e-11 6.31203e-11 6.35816e-11 5.91059e-11 5.94529e-11 6.35816e-11 6.39969e-11 6.31203e-11 6.35816e-11 6.75128e-11 6.80475e-11 6.35816e-11 6.39969e-11 6.80475e-11 6.85338e-11 6.63286e-11 6.6937e-11 7.05129e-11 7.12108e-11 6.6937e-11 6.75128e-11 7.12108e-11 7.18673e-11 7.05129e-11 7.12108e-11 7.46299e-11 7.54189e-11 7.12108e-11 7.18673e-11 7.54189e-11 7.61576e-11 6.75128e-11 6.80475e-11 7.18673e-11 7.24775e-11 6.80475e-11 6.85338e-11 7.24775e-11 7.30369e-11 7.18673e-11 7.24775e-11 7.61576e-11 7.68443e-11 7.24775e-11 7.30369e-11 7.68443e-11 7.7478e-11 5.94529e-11 5.97454e-11 6.39969e-11 6.43576e-11 5.97454e-11 5.99744e-11 6.43576e-11 6.46564e-11 6.39969e-11 6.43576e-11 6.85338e-11 6.89656e-11 6.43576e-11 6.46564e-11 6.89656e-11 6.93377e-11 5.99744e-11 6.0132e-11 6.46564e-11 6.4887e-11 6.0132e-11 6.02109e-11 6.4887e-11 6.50435e-11 6.46564e-11 6.4887e-11 6.93377e-11 6.96454e-11 6.4887e-11 6.50435e-11 6.96454e-11 6.98843e-11 6.85338e-11 6.89656e-11 7.30369e-11 7.35419e-11 6.89656e-11 6.93377e-11 7.35419e-11 7.39897e-11 7.30369e-11 7.35419e-11 7.7478e-11 7.80576e-11 7.35419e-11 7.39897e-11 7.80576e-11 7.85825e-11 6.93377e-11 6.96454e-11 7.39897e-11 7.43774e-11 6.96454e-11 6.98843e-11 7.43774e-11 7.47025e-11 7.39897e-11 7.43774e-11 7.85825e-11 7.9052e-11 7.43774e-11 7.47025e-11 7.9052e-11 7.94657e-11 4.14899e-11 4.12304e-11 4.60334e-11 4.58244e-11 4.12304e-11 4.08701e-11 4.58244e-11 4.55138e-11 4.60334e-11 4.58244e-11 5.06817e-11 5.05317e-11 4.58244e-11 4.55138e-11 5.05317e-11 5.0281e-11 4.08701e-11 4.04008e-11 4.55138e-11 4.50926e-11 4.04008e-11 3.98138e-11 4.50926e-11 4.45515e-11 4.55138e-11 4.50926e-11 5.0281e-11 4.99204e-11 4.50926e-11 4.45515e-11 4.99204e-11 4.94402e-11 5.06817e-11 5.05317e-11 5.54151e-11 5.53327e-11 5.05317e-11 5.0281e-11 5.53327e-11 5.51523e-11 5.54151e-11 5.53327e-11 6.02109e-11 6.02042e-11 5.53327e-11 5.51523e-11 6.02042e-11 6.01045e-11 5.0281e-11 4.99204e-11 5.51523e-11 5.48653e-11 4.99204e-11 4.94402e-11 5.48653e-11 5.44619e-11 5.51523e-11 5.48653e-11 6.01045e-11 5.99038e-11 5.48653e-11 5.44619e-11 5.99038e-11 5.95931e-11 3.98138e-11 3.90996e-11 4.45515e-11 4.38796e-11 3.90996e-11 3.82474e-11 4.38796e-11 4.30648e-11 4.45515e-11 4.38796e-11 4.94402e-11 4.88289e-11 4.38796e-11 4.30648e-11 4.88289e-11 4.80735e-11 3.82474e-11 3.72454e-11 4.30648e-11 4.20933e-11 3.72454e-11 3.60808e-11 4.20933e-11 4.09495e-11 4.30648e-11 4.20933e-11 4.80735e-11 4.71589e-11 4.20933e-11 4.09495e-11 4.71589e-11 4.60676e-11 4.94402e-11 4.88289e-11 5.44619e-11 5.39308e-11 4.88289e-11 4.80735e-11 5.39308e-11 5.32588e-11 5.44619e-11 5.39308e-11 5.95931e-11 5.91619e-11 5.39308e-11 5.32588e-11 5.91619e-11 5.85979e-11 4.80735e-11 4.71589e-11 5.32588e-11 5.24306e-11 4.71589e-11 4.60676e-11 5.24306e-11 5.14278e-11 5.32588e-11 5.24306e-11 5.85979e-11 5.78863e-11 5.24306e-11 5.14278e-11 5.78863e-11 5.70096e-11 6.02109e-11 6.02042e-11 6.50435e-11 6.51199e-11 6.02042e-11 6.01045e-11 6.51199e-11 6.51102e-11 6.50435e-11 6.51199e-11 6.98843e-11 7.00502e-11 6.51199e-11 6.51102e-11 7.00502e-11 7.01385e-11 6.01045e-11 5.99038e-11 6.51102e-11 6.50076e-11 5.99038e-11 5.95931e-11 6.50076e-11 6.48045e-11 6.51102e-11 6.50076e-11 7.01385e-11 7.01442e-11 6.50076e-11 6.48045e-11 7.01442e-11 7.00614e-11 6.98843e-11 7.00502e-11 7.47025e-11 7.49627e-11 7.00502e-11 7.01385e-11 7.49627e-11 7.51551e-11 7.47025e-11 7.49627e-11 7.94657e-11 7.9823e-11 7.49627e-11 7.51551e-11 7.9823e-11 8.01233e-11 7.01385e-11 7.01442e-11 7.51551e-11 7.52768e-11 7.01442e-11 7.00614e-11 7.52768e-11 7.53241e-11 7.51551e-11 7.52768e-11 8.01233e-11 8.03658e-11 7.52768e-11 7.53241e-11 8.03658e-11 8.05494e-11 5.95931e-11 5.91619e-11 6.48045e-11 6.44919e-11 5.91619e-11 5.85979e-11 6.44919e-11 6.4059e-11 6.48045e-11 6.44919e-11 7.00614e-11 6.98833e-11 6.44919e-11 6.4059e-11 6.98833e-11 6.96018e-11 5.85979e-11 5.78863e-11 6.4059e-11 6.34931e-11 5.78863e-11 5.70096e-11 6.34931e-11 6.27788e-11 6.4059e-11 6.34931e-11 6.96018e-11 6.92068e-11 6.34931e-11 6.27788e-11 6.92068e-11 6.86867e-11 7.00614e-11 6.98833e-11 7.53241e-11 7.52929e-11 6.98833e-11 6.96018e-11 7.52929e-11 7.51781e-11 7.53241e-11 7.52929e-11 8.05494e-11 8.06726e-11 7.52929e-11 7.51781e-11 8.06726e-11 8.07341e-11 6.96018e-11 6.92068e-11 7.51781e-11 7.49736e-11 6.92068e-11 6.86867e-11 7.49736e-11 7.46722e-11 7.51781e-11 7.49736e-11 8.07341e-11 8.07319e-11 7.49736e-11 7.46722e-11 8.07319e-11 8.0664e-11 4.78322e-12 3.59933e-12 8.07227e-12 6.95178e-12 3.59933e-12 2.36658e-12 6.95178e-12 5.78287e-12 8.07227e-12 6.95178e-12 1.15284e-11 1.04234e-11 6.95178e-12 5.78287e-12 1.04234e-11 9.26064e-12 2.36658e-12 1.11438e-12 5.78287e-12 4.58836e-12 1.11438e-12 -1.22925e-13 4.58836e-12 3.39473e-12 5.78287e-12 4.58836e-12 9.26064e-12 8.05722e-12 4.58836e-12 3.39473e-12 8.05722e-12 6.83319e-12 1.15284e-11 1.04234e-11 1.51467e-11 1.40219e-11 1.04234e-11 9.26064e-12 1.40219e-11 1.28232e-11 1.51467e-11 1.40219e-11 1.89334e-11 1.77659e-11 1.40219e-11 1.28232e-11 1.77659e-11 1.65036e-11 9.26064e-12 8.05722e-12 1.28232e-11 1.15625e-11 8.05722e-12 6.83319e-12 1.15625e-11 1.02546e-11 1.28232e-11 1.15625e-11 1.65036e-11 1.51536e-11 1.15625e-11 1.02546e-11 1.51536e-11 1.37259e-11 -1.22925e-13 -1.30663e-12 3.39473e-12 2.23151e-12 -1.30663e-12 -2.39488e-12 2.23151e-12 1.13041e-12 3.39473e-12 2.23151e-12 6.83319e-12 5.61142e-12 2.23151e-12 1.13041e-12 5.61142e-12 4.41703e-12 -2.39488e-12 -3.34454e-12 1.13041e-12 1.23873e-13 -3.34454e-12 -4.11368e-12 1.23873e-13 -7.56806e-13 1.13041e-12 1.23873e-13 4.41703e-12 3.27655e-12 1.23873e-13 -7.56806e-13 3.27655e-12 2.21667e-12 6.83319e-12 5.61142e-12 1.02546e-11 8.91743e-12 5.61142e-12 4.41703e-12 8.91743e-12 7.57193e-12 1.02546e-11 8.91743e-12 1.37259e-11 1.22345e-11 8.91743e-12 7.57193e-12 1.22345e-11 1.06975e-11 4.41703e-12 3.27655e-12 7.57193e-12 6.24201e-12 3.27655e-12 2.21667e-12 6.24201e-12 4.95364e-12 7.57193e-12 6.24201e-12 1.06975e-11 9.13793e-12 6.24201e-12 4.95364e-12 9.13793e-12 7.58334e-12 1.89334e-11 1.77659e-11 2.29022e-11 2.16808e-11 1.77659e-11 1.65036e-11 2.16808e-11 2.03407e-11 2.29022e-11 2.16808e-11 2.7071e-11 2.57956e-11 2.16808e-11 2.03407e-11 2.57956e-11 2.43763e-11 1.65036e-11 1.51536e-11 2.03407e-11 1.88841e-11 1.51536e-11 1.37259e-11 1.88841e-11 1.73166e-11 2.03407e-11 1.88841e-11 2.43763e-11 2.28102e-11 1.88841e-11 1.73166e-11 2.28102e-11 2.10978e-11 2.7071e-11 2.57956e-11 3.14584e-11 3.01397e-11 2.57956e-11 2.43763e-11 3.01397e-11 2.86522e-11 3.14584e-11 3.01397e-11 3.60808e-11 3.47396e-11 3.01397e-11 2.86522e-11 3.47396e-11 3.32072e-11 2.43763e-11 2.28102e-11 2.86522e-11 2.69878e-11 2.28102e-11 2.10978e-11 2.69878e-11 2.51406e-11 2.86522e-11 2.69878e-11 3.32072e-11 3.14696e-11 2.69878e-11 2.51406e-11 3.14696e-11 2.9514e-11 1.37259e-11 1.22345e-11 1.73166e-11 1.5648e-11 1.22345e-11 1.06975e-11 1.5648e-11 1.38938e-11 1.73166e-11 1.5648e-11 2.10978e-11 1.92441e-11 1.5648e-11 1.38938e-11 1.92441e-11 1.72607e-11 1.06975e-11 9.13793e-12 1.38938e-11 1.20763e-11 9.13793e-12 7.58334e-12 1.20763e-11 1.02256e-11 1.38938e-11 1.20763e-11 1.72607e-11 1.51685e-11 1.20763e-11 1.02256e-11 1.51685e-11 1.29988e-11 2.10978e-11 1.92441e-11 2.51406e-11 2.31096e-11 1.92441e-11 1.72607e-11 2.31096e-11 2.09006e-11 2.51406e-11 2.31096e-11 2.9514e-11 2.73312e-11 2.31096e-11 2.09006e-11 2.73312e-11 2.49185e-11 1.72607e-11 1.51685e-11 2.09006e-11 1.853e-11 1.51685e-11 1.29988e-11 1.853e-11 1.60277e-11 2.09006e-11 1.853e-11 2.49185e-11 2.22837e-11 1.853e-11 1.60277e-11 2.22837e-11 1.94501e-11 -4.11368e-12 -4.66501e-12 -7.56806e-13 -1.48385e-12 -4.66501e-12 -4.96965e-12 -1.48385e-12 -2.03578e-12 -7.56806e-13 -1.48385e-12 2.21667e-12 1.26239e-12 -1.48385e-12 -2.03578e-12 1.26239e-12 4.34734e-13 -4.96965e-12 -5.01138e-12 -2.03578e-12 -2.40032e-12 -5.01138e-12 -4.79019e-12 -2.40032e-12 -2.57703e-12 -2.03578e-12 -2.40032e-12 4.34734e-13 -2.51877e-13 -2.40032e-12 -2.57703e-12 -2.51877e-13 -7.92376e-13 2.21667e-12 1.26239e-12 4.95364e-12 3.73359e-12 1.26239e-12 4.34734e-13 3.73359e-12 2.60714e-12 4.95364e-12 3.73359e-12 7.58334e-12 6.06509e-12 3.73359e-12 2.60714e-12 6.06509e-12 4.61615e-12 4.34734e-13 -2.51877e-13 2.60714e-12 1.59514e-12 -2.51877e-13 -7.92376e-13 1.59514e-12 7.10336e-13 2.60714e-12 1.59514e-12 4.61615e-12 3.26734e-12 1.59514e-12 7.10336e-13 3.26734e-12 2.04224e-12 -4.79019e-12 -4.325e-12 -2.57703e-12 -2.57915e-12 -4.325e-12 -3.65442e-12 -2.57915e-12 -2.43413e-12 -2.57703e-12 -2.57915e-12 -7.92376e-13 -1.19334e-12 -2.57915e-12 -2.43413e-12 -1.19334e-12 -1.47412e-12 -3.65442e-12 -2.83515e-12 -2.43413e-12 -2.18247e-12 -2.83515e-12 -7.34377e-11 -2.18247e-12 -1.87477e-12 -2.43413e-12 -2.18247e-12 -1.47412e-12 -1.66646e-12 -2.18247e-12 -1.87477e-12 -1.66646e-12 -1.81184e-12 -7.92376e-13 -1.19334e-12 7.10336e-13 -4.6193e-14 -1.19334e-12 -1.47412e-12 -4.6193e-14 -6.87636e-13 7.10336e-13 -4.6193e-14 2.04224e-12 9.514e-13 -4.6193e-14 -6.87636e-13 9.514e-13 -1.25045e-14 -1.47412e-12 -1.66646e-12 -6.87636e-13 -1.24183e-12 -1.66646e-12 -1.81184e-12 -1.24183e-12 -1.74891e-12 -6.87636e-13 -1.24183e-12 -1.25045e-14 -8.7672e-13 -1.24183e-12 -1.74891e-12 -8.7672e-13 -1.68598e-12 7.58334e-12 6.06509e-12 1.02256e-11 8.37907e-12 6.06509e-12 4.61615e-12 8.37907e-12 6.57977e-12 1.02256e-11 8.37907e-12 1.29988e-11 1.07952e-11 8.37907e-12 6.57977e-12 1.07952e-11 8.61182e-12 4.61615e-12 3.26734e-12 6.57977e-12 4.87192e-12 3.26734e-12 2.04224e-12 4.87192e-12 3.2939e-12 6.57977e-12 4.87192e-12 8.61182e-12 6.50983e-12 4.87192e-12 3.2939e-12 6.50983e-12 4.54773e-12 1.29988e-11 1.07952e-11 1.60277e-11 1.34409e-11 1.07952e-11 8.61182e-12 1.34409e-11 1.08346e-11 1.60277e-11 1.34409e-11 1.94501e-11 1.64627e-11 1.34409e-11 1.08346e-11 1.64627e-11 1.33934e-11 8.61182e-12 6.50983e-12 1.08346e-11 8.28926e-12 6.50983e-12 4.54773e-12 8.28926e-12 5.89016e-12 1.08346e-11 8.28926e-12 1.33934e-11 1.03418e-11 8.28926e-12 5.89016e-12 1.03418e-11 7.42715e-12 2.04224e-12 9.514e-13 3.2939e-12 1.86932e-12 9.514e-13 -1.25045e-14 1.86932e-12 5.98253e-13 3.2939e-12 1.86932e-12 4.54773e-12 2.76823e-12 1.86932e-12 5.98253e-13 2.76823e-12 1.18337e-12 -1.25045e-14 -8.7672e-13 5.98253e-13 -5.47671e-13 -8.7672e-13 -1.68598e-12 -5.47671e-13 -1.62304e-12 5.98253e-13 -5.47671e-13 1.18337e-12 -2.36092e-13 -5.47671e-13 -1.62304e-12 -2.36092e-13 -1.5601e-12 4.54773e-12 2.76823e-12 5.89016e-12 3.70907e-12 2.76823e-12 1.18337e-12 3.70907e-12 1.77933e-12 5.89016e-12 3.70907e-12 7.42715e-12 4.76488e-12 3.70907e-12 1.77933e-12 4.76488e-12 2.42721e-12 1.18337e-12 -2.36092e-13 1.77933e-12 7.4287e-14 -2.36092e-13 -1.5601e-12 7.4287e-14 -1.49715e-12 1.77933e-12 7.4287e-14 2.42721e-12 4.00344e-13 7.4287e-14 -1.49715e-12 4.00344e-13 -1.43421e-12 3.60808e-11 3.47396e-11 4.09495e-11 3.96159e-11 3.47396e-11 3.32072e-11 3.96159e-11 3.80734e-11 4.09495e-11 3.96159e-11 4.60676e-11 4.47796e-11 3.96159e-11 3.80734e-11 4.47796e-11 4.3272e-11 3.32072e-11 3.14696e-11 3.80734e-11 3.63019e-11 3.14696e-11 2.9514e-11 3.63019e-11 3.42812e-11 3.80734e-11 3.63019e-11 4.3272e-11 4.15195e-11 3.63019e-11 3.42812e-11 4.15195e-11 3.94942e-11 4.60676e-11 4.47796e-11 5.14278e-11 5.02291e-11 4.47796e-11 4.3272e-11 5.02291e-11 4.88095e-11 5.14278e-11 5.02291e-11 5.70096e-11 5.59468e-11 5.02291e-11 4.88095e-11 5.59468e-11 5.46727e-11 4.3272e-11 4.15195e-11 4.88095e-11 4.71398e-11 4.15195e-11 3.94942e-11 4.71398e-11 4.51864e-11 4.88095e-11 4.71398e-11 5.46727e-11 5.31572e-11 4.71398e-11 4.51864e-11 5.31572e-11 5.13638e-11 2.9514e-11 2.73312e-11 3.42812e-11 3.19924e-11 2.73312e-11 2.49185e-11 3.19924e-11 2.94209e-11 3.42812e-11 3.19924e-11 3.94942e-11 3.71671e-11 3.19924e-11 2.94209e-11 3.71671e-11 3.45095e-11 2.49185e-11 2.22837e-11 2.94209e-11 2.65608e-11 2.22837e-11 1.94501e-11 2.65608e-11 2.34215e-11 2.94209e-11 2.65608e-11 3.45095e-11 3.1497e-11 2.65608e-11 2.34215e-11 3.1497e-11 2.81158e-11 3.94942e-11 3.71671e-11 4.51864e-11 4.2911e-11 3.71671e-11 3.45095e-11 4.2911e-11 4.02707e-11 4.51864e-11 4.2911e-11 5.13638e-11 4.92485e-11 4.2911e-11 4.02707e-11 4.92485e-11 4.67581e-11 3.45095e-11 3.1497e-11 4.02707e-11 3.72202e-11 3.1497e-11 2.81158e-11 3.72202e-11 3.37154e-11 4.02707e-11 3.72202e-11 4.67581e-11 4.38289e-11 3.72202e-11 3.37154e-11 4.38289e-11 4.03858e-11 5.70096e-11 5.59468