# vtk DataFile Version 3.0
#This file was generated by the deal.II library on 2017/7/23 at 22:50:50
ASCII
DATASET UNSTRUCTURED_GRID

POINTS 16384 double
-1e-05 -1e-05 0
-9.6875e-06 -1e-05 0
-1e-05 -9.6875e-06 0
-9.6875e-06 -9.6875e-06 0
-9.6875e-06 -1e-05 0
-9.375e-06 -1e-05 0
-9.6875e-06 -9.6875e-06 0
-9.375e-06 -9.6875e-06 0
-1e-05 -9.6875e-06 0
-9.6875e-06 -9.6875e-06 0
-1e-05 -9.375e-06 0
-9.6875e-06 -9.375e-06 0
-9.6875e-06 -9.6875e-06 0
-9.375e-06 -9.6875e-06 0
-9.6875e-06 -9.375e-06 0
-9.375e-06 -9.375e-06 0
-9.375e-06 -1e-05 0
-9.0625e-06 -1e-05 0
-9.375e-06 -9.6875e-06 0
-9.0625e-06 -9.6875e-06 0
-9.0625e-06 -1e-05 0
-8.75e-06 -1e-05 0
-9.0625e-06 -9.6875e-06 0
-8.75e-06 -9.6875e-06 0
-9.375e-06 -9.6875e-06 0
-9.0625e-06 -9.6875e-06 0
-9.375e-06 -9.375e-06 0
-9.0625e-06 -9.375e-06 0
-9.0625e-06 -9.6875e-06 0
-8.75e-06 -9.6875e-06 0
-9.0625e-06 -9.375e-06 0
-8.75e-06 -9.375e-06 0
-1e-05 -9.375e-06 0
-9.6875e-06 -9.375e-06 0
-1e-05 -9.0625e-06 0
-9.6875e-06 -9.0625e-06 0
-9.6875e-06 -9.375e-06 0
-9.375e-06 -9.375e-06 0
-9.6875e-06 -9.0625e-06 0
-9.375e-06 -9.0625e-06 0
-1e-05 -9.0625e-06 0
-9.6875e-06 -9.0625e-06 0
-1e-05 -8.75e-06 0
-9.6875e-06 -8.75e-06 0
-9.6875e-06 -9.0625e-06 0
-9.375e-06 -9.0625e-06 0
-9.6875e-06 -8.75e-06 0
-9.375e-06 -8.75e-06 0
-9.375e-06 -9.375e-06 0
-9.0625e-06 -9.375e-06 0
-9.375e-06 -9.0625e-06 0
-9.0625e-06 -9.0625e-06 0
-9.0625e-06 -9.375e-06 0
-8.75e-06 -9.375e-06 0
-9.0625e-06 -9.0625e-06 0
-8.75e-06 -9.0625e-06 0
-9.375e-06 -9.0625e-06 0
-9.0625e-06 -9.0625e-06 0
-9.375e-06 -8.75e-06 0
-9.0625e-06 -8.75e-06 0
-9.0625e-06 -9.0625e-06 0
-8.75e-06 -9.0625e-06 0
-9.0625e-06 -8.75e-06 0
-8.75e-06 -8.75e-06 0
-8.75e-06 -1e-05 0
-8.4375e-06 -1e-05 0
-8.75e-06 -9.6875e-06 0
-8.4375e-06 -9.6875e-06 0
-8.4375e-06 -1e-05 0
-8.125e-06 -1e-05 0
-8.4375e-06 -9.6875e-06 0
-8.125e-06 -9.6875e-06 0
-8.75e-06 -9.6875e-06 0
-8.4375e-06 -9.6875e-06 0
-8.75e-06 -9.375e-06 0
-8.4375e-06 -9.375e-06 0
-8.4375e-06 -9.6875e-06 0
-8.125e-06 -9.6875e-06 0
-8.4375e-06 -9.375e-06 0
-8.125e-06 -9.375e-06 0
-8.125e-06 -1e-05 0
-7.8125e-06 -1e-05 0
-8.125e-06 -9.6875e-06 0
-7.8125e-06 -9.6875e-06 0
-7.8125e-06 -1e-05 0
-7.5e-06 -1e-05 0
-7.8125e-06 -9.6875e-06 0
-7.5e-06 -9.6875e-06 0
-8.125e-06 -9.6875e-06 0
-7.8125e-06 -9.6875e-06 0
-8.125e-06 -9.375e-06 0
-7.8125e-06 -9.375e-06 0
-7.8125e-06 -9.6875e-06 0
-7.5e-06 -9.6875e-06 0
-7.8125e-06 -9.375e-06 0
-7.5e-06 -9.375e-06 0
-8.75e-06 -9.375e-06 0
-8.4375e-06 -9.375e-06 0
-8.75e-06 -9.0625e-06 0
-8.4375e-06 -9.0625e-06 0
-8.4375e-06 -9.375e-06 0
-8.125e-06 -9.375e-06 0
-8.4375e-06 -9.0625e-06 0
-8.125e-06 -9.0625e-06 0
-8.75e-06 -9.0625e-06 0
-8.4375e-06 -9.0625e-06 0
-8.75e-06 -8.75e-06 0
-8.4375e-06 -8.75e-06 0
-8.4375e-06 -9.0625e-06 0
-8.125e-06 -9.0625e-06 0
-8.4375e-06 -8.75e-06 0
-8.125e-06 -8.75e-06 0
-8.125e-06 -9.375e-06 0
-7.8125e-06 -9.375e-06 0
-8.125e-06 -9.0625e-06 0
-7.8125e-06 -9.0625e-06 0
-7.8125e-06 -9.375e-06 0
-7.5e-06 -9.375e-06 0
-7.8125e-06 -9.0625e-06 0
-7.5e-06 -9.0625e-06 0
-8.125e-06 -9.0625e-06 0
-7.8125e-06 -9.0625e-06 0
-8.125e-06 -8.75e-06 0
-7.8125e-06 -8.75e-06 0
-7.8125e-06 -9.0625e-06 0
-7.5e-06 -9.0625e-06 0
-7.8125e-06 -8.75e-06 0
-7.5e-06 -8.75e-06 0
-1e-05 -8.75e-06 0
-9.6875e-06 -8.75e-06 0
-1e-05 -8.4375e-06 0
-9.6875e-06 -8.4375e-06 0
-9.6875e-06 -8.75e-06 0
-9.375e-06 -8.75e-06 0
-9.6875e-06 -8.4375e-06 0
-9.375e-06 -8.4375e-06 0
-1e-05 -8.4375e-06 0
-9.6875e-06 -8.4375e-06 0
-1e-05 -8.125e-06 0
-9.6875e-06 -8.125e-06 0
-9.6875e-06 -8.4375e-06 0
-9.375e-06 -8.4375e-06 0
-9.6875e-06 -8.125e-06 0
-9.375e-06 -8.125e-06 0
-9.375e-06 -8.75e-06 0
-9.0625e-06 -8.75e-06 0
-9.375e-06 -8.4375e-06 0
-9.0625e-06 -8.4375e-06 0
-9.0625e-06 -8.75e-06 0
-8.75e-06 -8.75e-06 0
-9.0625e-06 -8.4375e-06 0
-8.75e-06 -8.4375e-06 0
-9.375e-06 -8.4375e-06 0
-9.0625e-06 -8.4375e-06 0
-9.375e-06 -8.125e-06 0
-9.0625e-06 -8.125e-06 0
-9.0625e-06 -8.4375e-06 0
-8.75e-06 -8.4375e-06 0
-9.0625e-06 -8.125e-06 0
-8.75e-06 -8.125e-06 0
-1e-05 -8.125e-06 0
-9.6875e-06 -8.125e-06 0
-1e-05 -7.8125e-06 0
-9.6875e-06 -7.8125e-06 0
-9.6875e-06 -8.125e-06 0
-9.375e-06 -8.125e-06 0
-9.6875e-06 -7.8125e-06 0
-9.375e-06 -7.8125e-06 0
-1e-05 -7.8125e-06 0
-9.6875e-06 -7.8125e-06 0
-1e-05 -7.5e-06 0
-9.6875e-06 -7.5e-06 0
-9.6875e-06 -7.8125e-06 0
-9.375e-06 -7.8125e-06 0
-9.6875e-06 -7.5e-06 0
-9.375e-06 -7.5e-06 0
-9.375e-06 -8.125e-06 0
-9.0625e-06 -8.125e-06 0
-9.375e-06 -7.8125e-06 0
-9.0625e-06 -7.8125e-06 0
-9.0625e-06 -8.125e-06 0
-8.75e-06 -8.125e-06 0
-9.0625e-06 -7.8125e-06 0
-8.75e-06 -7.8125e-06 0
-9.375e-06 -7.8125e-06 0
-9.0625e-06 -7.8125e-06 0
-9.375e-06 -7.5e-06 0
-9.0625e-06 -7.5e-06 0
-9.0625e-06 -7.8125e-06 0
-8.75e-06 -7.8125e-06 0
-9.0625e-06 -7.5e-06 0
-8.75e-06 -7.5e-06 0
-8.75e-06 -8.75e-06 0
-8.4375e-06 -8.75e-06 0
-8.75e-06 -8.4375e-06 0
-8.4375e-06 -8.4375e-06 0
-8.4375e-06 -8.75e-06 0
-8.125e-06 -8.75e-06 0
-8.4375e-06 -8.4375e-06 0
-8.125e-06 -8.4375e-06 0
-8.75e-06 -8.4375e-06 0
-8.4375e-06 -8.4375e-06 0
-8.75e-06 -8.125e-06 0
-8.4375e-06 -8.125e-06 0
-8.4375e-06 -8.4375e-06 0
-8.125e-06 -8.4375e-06 0
-8.4375e-06 -8.125e-06 0
-8.125e-06 -8.125e-06 0
-8.125e-06 -8.75e-06 0
-7.8125e-06 -8.75e-06 0
-8.125e-06 -8.4375e-06 0
-7.8125e-06 -8.4375e-06 0
-7.8125e-06 -8.75e-06 0
-7.5e-06 -8.75e-06 0
-7.8125e-06 -8.4375e-06 0
-7.5e-06 -8.4375e-06 0
-8.125e-06 -8.4375e-06 0
-7.8125e-06 -8.4375e-06 0
-8.125e-06 -8.125e-06 0
-7.8125e-06 -8.125e-06 0
-7.8125e-06 -8.4375e-06 0
-7.5e-06 -8.4375e-06 0
-7.8125e-06 -8.125e-06 0
-7.5e-06 -8.125e-06 0
-8.75e-06 -8.125e-06 0
-8.4375e-06 -8.125e-06 0
-8.75e-06 -7.8125e-06 0
-8.4375e-06 -7.8125e-06 0
-8.4375e-06 -8.125e-06 0
-8.125e-06 -8.125e-06 0
-8.4375e-06 -7.8125e-06 0
-8.125e-06 -7.8125e-06 0
-8.75e-06 -7.8125e-06 0
-8.4375e-06 -7.8125e-06 0
-8.75e-06 -7.5e-06 0
-8.4375e-06 -7.5e-06 0
-8.4375e-06 -7.8125e-06 0
-8.125e-06 -7.8125e-06 0
-8.4375e-06 -7.5e-06 0
-8.125e-06 -7.5e-06 0
-8.125e-06 -8.125e-06 0
-7.8125e-06 -8.125e-06 0
-8.125e-06 -7.8125e-06 0
-7.8125e-06 -7.8125e-06 0
-7.8125e-06 -8.125e-06 0
-7.5e-06 -8.125e-06 0
-7.8125e-06 -7.8125e-06 0
-7.5e-06 -7.8125e-06 0
-8.125e-06 -7.8125e-06 0
-7.8125e-06 -7.8125e-06 0
-8.125e-06 -7.5e-06 0
-7.8125e-06 -7.5e-06 0
-7.8125e-06 -7.8125e-06 0
-7.5e-06 -7.8125e-06 0
-7.8125e-06 -7.5e-06 0
-7.5e-06 -7.5e-06 0
-7.5e-06 -1e-05 0
-7.1875e-06 -1e-05 0
-7.5e-06 -9.6875e-06 0
-7.1875e-06 -9.6875e-06 0
-7.1875e-06 -1e-05 0
-6.875e-06 -1e-05 0
-7.1875e-06 -9.6875e-06 0
-6.875e-06 -9.6875e-06 0
-7.5e-06 -9.6875e-06 0
-7.1875e-06 -9.6875e-06 0
-7.5e-06 -9.375e-06 0
-7.1875e-06 -9.375e-06 0
-7.1875e-06 -9.6875e-06 0
-6.875e-06 -9.6875e-06 0
-7.1875e-06 -9.375e-06 0
-6.875e-06 -9.375e-06 0
-6.875e-06 -1e-05 0
-6.5625e-06 -1e-05 0
-6.875e-06 -9.6875e-06 0
-6.5625e-06 -9.6875e-06 0
-6.5625e-06 -1e-05 0
-6.25e-06 -1e-05 0
-6.5625e-06 -9.6875e-06 0
-6.25e-06 -9.6875e-06 0
-6.875e-06 -9.6875e-06 0
-6.5625e-06 -9.6875e-06 0
-6.875e-06 -9.375e-06 0
-6.5625e-06 -9.375e-06 0
-6.5625e-06 -9.6875e-06 0
-6.25e-06 -9.6875e-06 0
-6.5625e-06 -9.375e-06 0
-6.25e-06 -9.375e-06 0
-7.5e-06 -9.375e-06 0
-7.1875e-06 -9.375e-06 0
-7.5e-06 -9.0625e-06 0
-7.1875e-06 -9.0625e-06 0
-7.1875e-06 -9.375e-06 0
-6.875e-06 -9.375e-06 0
-7.1875e-06 -9.0625e-06 0
-6.875e-06 -9.0625e-06 0
-7.5e-06 -9.0625e-06 0
-7.1875e-06 -9.0625e-06 0
-7.5e-06 -8.75e-06 0
-7.1875e-06 -8.75e-06 0
-7.1875e-06 -9.0625e-06 0
-6.875e-06 -9.0625e-06 0
-7.1875e-06 -8.75e-06 0
-6.875e-06 -8.75e-06 0
-6.875e-06 -9.375e-06 0
-6.5625e-06 -9.375e-06 0
-6.875e-06 -9.0625e-06 0
-6.5625e-06 -9.0625e-06 0
-6.5625e-06 -9.375e-06 0
-6.25e-06 -9.375e-06 0
-6.5625e-06 -9.0625e-06 0
-6.25e-06 -9.0625e-06 0
-6.875e-06 -9.0625e-06 0
-6.5625e-06 -9.0625e-06 0
-6.875e-06 -8.75e-06 0
-6.5625e-06 -8.75e-06 0
-6.5625e-06 -9.0625e-06 0
-6.25e-06 -9.0625e-06 0
-6.5625e-06 -8.75e-06 0
-6.25e-06 -8.75e-06 0
-6.25e-06 -1e-05 0
-5.9375e-06 -1e-05 0
-6.25e-06 -9.6875e-06 0
-5.9375e-06 -9.6875e-06 0
-5.9375e-06 -1e-05 0
-5.625e-06 -1e-05 0
-5.9375e-06 -9.6875e-06 0
-5.625e-06 -9.6875e-06 0
-6.25e-06 -9.6875e-06 0
-5.9375e-06 -9.6875e-06 0
-6.25e-06 -9.375e-06 0
-5.9375e-06 -9.375e-06 0
-5.9375e-06 -9.6875e-06 0
-5.625e-06 -9.6875e-06 0
-5.9375e-06 -9.375e-06 0
-5.625e-06 -9.375e-06 0
-5.625e-06 -1e-05 0
-5.3125e-06 -1e-05 0
-5.625e-06 -9.6875e-06 0
-5.3125e-06 -9.6875e-06 0
-5.3125e-06 -1e-05 0
-5e-06 -1e-05 0
-5.3125e-06 -9.6875e-06 0
-5e-06 -9.6875e-06 0
-5.625e-06 -9.6875e-06 0
-5.3125e-06 -9.6875e-06 0
-5.625e-06 -9.375e-06 0
-5.3125e-06 -9.375e-06 0
-5.3125e-06 -9.6875e-06 0
-5e-06 -9.6875e-06 0
-5.3125e-06 -9.375e-06 0
-5e-06 -9.375e-06 0
-6.25e-06 -9.375e-06 0
-5.9375e-06 -9.375e-06 0
-6.25e-06 -9.0625e-06 0
-5.9375e-06 -9.0625e-06 0
-5.9375e-06 -9.375e-06 0
-5.625e-06 -9.375e-06 0
-5.9375e-06 -9.0625e-06 0
-5.625e-06 -9.0625e-06 0
-6.25e-06 -9.0625e-06 0
-5.9375e-06 -9.0625e-06 0
-6.25e-06 -8.75e-06 0
-5.9375e-06 -8.75e-06 0
-5.9375e-06 -9.0625e-06 0
-5.625e-06 -9.0625e-06 0
-5.9375e-06 -8.75e-06 0
-5.625e-06 -8.75e-06 0
-5.625e-06 -9.375e-06 0
-5.3125e-06 -9.375e-06 0
-5.625e-06 -9.0625e-06 0
-5.3125e-06 -9.0625e-06 0
-5.3125e-06 -9.375e-06 0
-5e-06 -9.375e-06 0
-5.3125e-06 -9.0625e-06 0
-5e-06 -9.0625e-06 0
-5.625e-06 -9.0625e-06 0
-5.3125e-06 -9.0625e-06 0
-5.625e-06 -8.75e-06 0
-5.3125e-06 -8.75e-06 0
-5.3125e-06 -9.0625e-06 0
-5e-06 -9.0625e-06 0
-5.3125e-06 -8.75e-06 0
-5e-06 -8.75e-06 0
-7.5e-06 -8.75e-06 0
-7.1875e-06 -8.75e-06 0
-7.5e-06 -8.4375e-06 0
-7.1875e-06 -8.4375e-06 0
-7.1875e-06 -8.75e-06 0
-6.875e-06 -8.75e-06 0
-7.1875e-06 -8.4375e-06 0
-6.875e-06 -8.4375e-06 0
-7.5e-06 -8.4375e-06 0
-7.1875e-06 -8.4375e-06 0
-7.5e-06 -8.125e-06 0
-7.1875e-06 -8.125e-06 0
-7.1875e-06 -8.4375e-06 0
-6.875e-06 -8.4375e-06 0
-7.1875e-06 -8.125e-06 0
-6.875e-06 -8.125e-06 0
-6.875e-06 -8.75e-06 0
-6.5625e-06 -8.75e-06 0
-6.875e-06 -8.4375e-06 0
-6.5625e-06 -8.4375e-06 0
-6.5625e-06 -8.75e-06 0
-6.25e-06 -8.75e-06 0
-6.5625e-06 -8.4375e-06 0
-6.25e-06 -8.4375e-06 0
-6.875e-06 -8.4375e-06 0
-6.5625e-06 -8.4375e-06 0
[...]
POINT_DATA 16384
SCALARS x_displacement double 1
LOOKUP_TABLE default
1.09864e-11 1.09893e-11 1.45409e-11 1.45381e-11 1.09893e-11 1.10088e-11 1.45381e-11 1.45362e-11 1.45409e-11 1.45381e-11 1.81118e-11 1.81033e-11 1.45381e-11 1.45362e-11 1.81033e-11 1.80962e-11 1.10088e-11 1.10375e-11 1.45362e-11 1.45241e-11 1.10375e-11 1.10567e-11 1.45241e-11 1.44881e-11 1.45362e-11 1.45241e-11 1.80962e-11 1.80721e-11 1.45241e-11 1.44881e-11 1.80721e-11 1.80162e-11 1.81118e-11 1.81033e-11 2.17319e-11 2.17269e-11 1.81033e-11 1.80962e-11 2.17269e-11 2.17271e-11 2.17319e-11 2.17269e-11 2.54261e-11 2.54345e-11 2.17269e-11 2.17271e-11 2.54345e-11 2.54521e-11 1.80962e-11 1.80721e-11 2.17271e-11 2.17089e-11 1.80721e-11 1.80162e-11 2.17089e-11 2.16554e-11 2.17271e-11 2.17089e-11 2.54521e-11 2.54521e-11 2.17089e-11 2.16554e-11 2.54521e-11 2.54156e-11 1.10567e-11 1.10446e-11 1.44881e-11 1.44135e-11 1.10446e-11 1.098e-11 1.44135e-11 1.42855e-11 1.44881e-11 1.44135e-11 1.80162e-11 1.79158e-11 1.44135e-11 1.42855e-11 1.79158e-11 1.77592e-11 1.098e-11 1.08437e-11 1.42855e-11 1.40901e-11 1.08437e-11 1.06193e-11 1.40901e-11 1.3815e-11 1.42855e-11 1.40901e-11 1.77592e-11 1.75358e-11 1.40901e-11 1.3815e-11 1.75358e-11 1.72361e-11 1.80162e-11 1.79158e-11 2.16554e-11 2.15535e-11 1.79158e-11 1.77592e-11 2.15535e-11 2.13927e-11 2.16554e-11 2.15535e-11 2.54156e-11 2.53286e-11 2.15535e-11 2.13927e-11 2.53286e-11 2.51802e-11 1.77592e-11 1.75358e-11 2.13927e-11 2.11638e-11 1.75358e-11 1.72361e-11 2.11638e-11 2.08587e-11 2.13927e-11 2.11638e-11 2.51802e-11 2.49618e-11 2.11638e-11 2.08587e-11 2.49618e-11 2.46658e-11 2.54261e-11 2.54345e-11 2.92077e-11 2.92397e-11 2.54345e-11 2.54521e-11 2.92397e-11 2.92833e-11 2.92077e-11 2.92397e-11 3.30812e-11 3.31467e-11 2.92397e-11 2.92833e-11 3.31467e-11 3.32244e-11 2.54521e-11 2.54521e-11 2.92833e-11 2.93106e-11 2.54521e-11 2.54156e-11 2.93106e-11 2.93013e-11 2.92833e-11 2.93106e-11 3.32244e-11 3.32864e-11 2.93106e-11 2.93013e-11 3.32864e-11 3.33119e-11 3.30812e-11 3.31467e-11 3.70449e-11 3.71533e-11 3.31467e-11 3.32244e-11 3.71533e-11 3.72725e-11 3.70449e-11 3.71533e-11 4.10919e-11 4.12519e-11 3.71533e-11 3.72725e-11 4.12519e-11 4.14196e-11 3.32244e-11 3.32864e-11 3.72725e-11 3.73757e-11 3.32864e-11 3.33119e-11 3.73757e-11 3.74423e-11 3.72725e-11 3.73757e-11 4.14196e-11 4.15701e-11 3.73757e-11 3.74423e-11 4.15701e-11 4.16832e-11 2.54156e-11 2.53286e-11 2.93013e-11 2.92403e-11 2.53286e-11 2.51802e-11 2.92403e-11 2.91162e-11 2.93013e-11 2.92403e-11 3.33119e-11 3.3285e-11 2.92403e-11 2.91162e-11 3.3285e-11 3.31938e-11 2.51802e-11 2.49618e-11 2.91162e-11 2.89199e-11 2.49618e-11 2.46658e-11 2.89199e-11 2.8644e-11 2.91162e-11 2.89199e-11 3.31938e-11 3.30287e-11 2.89199e-11 2.8644e-11 3.30287e-11 3.27817e-11 3.33119e-11 3.3285e-11 3.74423e-11 3.74561e-11 3.3285e-11 3.31938e-11 3.74561e-11 3.74047e-11 3.74423e-11 3.74561e-11 4.16832e-11 4.17432e-11 3.74561e-11 3.74047e-11 4.17432e-11 4.17376e-11 3.31938e-11 3.30287e-11 3.74047e-11 3.7278e-11 3.30287e-11 3.27817e-11 3.7278e-11 3.70676e-11 3.74047e-11 3.7278e-11 4.17376e-11 4.16559e-11 3.7278e-11 3.70676e-11 4.16559e-11 4.14894e-11 1.06193e-11 1.02934e-11 1.3815e-11 1.34501e-11 1.02934e-11 9.85587e-12 1.34501e-11 1.29873e-11 1.3815e-11 1.34501e-11 1.72361e-11 1.6852e-11 1.34501e-11 1.29873e-11 1.6852e-11 1.63771e-11 9.85587e-12 9.30018e-12 1.29873e-11 1.24214e-11 9.30018e-12 8.62327e-12 1.24214e-11 1.17499e-11 1.29873e-11 1.24214e-11 1.63771e-11 1.5807e-11 1.24214e-11 1.17499e-11 1.5807e-11 1.51393e-11 1.72361e-11 1.6852e-11 2.08587e-11 2.04708e-11 1.6852e-11 1.63771e-11 2.04708e-11 1.99944e-11 2.08587e-11 2.04708e-11 2.46658e-11 2.42859e-11 2.04708e-11 1.99944e-11 2.42859e-11 2.38167e-11 1.63771e-11 1.5807e-11 1.99944e-11 1.94252e-11 1.5807e-11 1.51393e-11 1.94252e-11 1.87604e-11 1.99944e-11 1.94252e-11 2.38167e-11 2.32535e-11 1.94252e-11 1.87604e-11 2.32535e-11 2.25926e-11 8.62327e-12 7.82598e-12 1.17499e-11 1.09736e-11 7.82598e-12 6.91325e-12 1.09736e-11 1.00964e-11 1.17499e-11 1.09736e-11 1.51393e-11 1.43739e-11 1.09736e-11 1.00964e-11 1.43739e-11 1.35131e-11 6.91325e-12 5.89441e-12 1.00964e-11 9.12562e-12 5.89441e-12 4.78351e-12 9.12562e-12 8.07248e-12 1.00964e-11 9.12562e-12 1.35131e-11 1.2562e-11 9.12562e-12 8.07248e-12 1.2562e-11 1.15286e-11 1.51393e-11 1.43739e-11 1.87604e-11 1.79988e-11 1.43739e-11 1.35131e-11 1.79988e-11 1.71407e-11 1.87604e-11 1.79988e-11 2.25926e-11 2.18312e-11 1.79988e-11 1.71407e-11 2.18312e-11 2.09677e-11 1.35131e-11 1.2562e-11 1.71407e-11 1.61885e-11 1.2562e-11 1.15286e-11 1.61885e-11 1.51467e-11 1.71407e-11 1.61885e-11 2.09677e-11 2.00014e-11 1.61885e-11 1.51467e-11 2.00014e-11 1.89333e-11 2.46658e-11 2.42859e-11 2.8644e-11 2.82818e-11 2.42859e-11 2.38167e-11 2.82818e-11 2.78277e-11 2.8644e-11 2.82818e-11 3.27817e-11 3.24457e-11 2.82818e-11 2.78277e-11 3.24457e-11 3.20144e-11 2.38167e-11 2.32535e-11 2.78277e-11 2.72761e-11 2.32535e-11 2.25926e-11 2.72761e-11 2.66223e-11 2.78277e-11 2.72761e-11 3.20144e-11 3.14814e-11 2.72761e-11 2.66223e-11 3.14814e-11 3.08405e-11 3.27817e-11 3.24457e-11 3.70676e-11 3.67659e-11 3.24457e-11 3.20144e-11 3.67659e-11 3.63656e-11 3.70676e-11 3.67659e-11 4.14894e-11 4.12299e-11 3.67659e-11 3.63656e-11 4.12299e-11 4.08696e-11 3.20144e-11 3.14814e-11 3.63656e-11 3.58595e-11 3.14814e-11 3.08405e-11 3.58595e-11 3.524e-11 3.63656e-11 3.58595e-11 4.08696e-11 4.04003e-11 3.58595e-11 3.524e-11 4.04003e-11 3.98133e-11 2.25926e-11 2.18312e-11 2.66223e-11 2.58618e-11 2.18312e-11 2.09677e-11 2.58618e-11 2.49904e-11 2.66223e-11 2.58618e-11 3.08405e-11 3.00854e-11 2.58618e-11 2.49904e-11 3.00854e-11 2.92097e-11 2.09677e-11 2.00014e-11 2.49904e-11 2.40047e-11 2.00014e-11 1.89333e-11 2.40047e-11 2.2902e-11 2.49904e-11 2.40047e-11 2.92097e-11 2.82069e-11 2.40047e-11 2.2902e-11 2.82069e-11 2.70706e-11 3.08405e-11 3.00854e-11 3.524e-11 3.44991e-11 3.00854e-11 2.92097e-11 3.44991e-11 3.3628e-11 3.524e-11 3.44991e-11 3.98133e-11 3.9099e-11 3.44991e-11 3.3628e-11 3.9099e-11 3.82468e-11 2.92097e-11 2.82069e-11 3.3628e-11 3.26175e-11 2.82069e-11 2.70706e-11 3.26175e-11 3.14579e-11 3.3628e-11 3.26175e-11 3.82468e-11 3.72448e-11 3.26175e-11 3.14579e-11 3.72448e-11 3.60802e-11 4.10919e-11 4.12519e-11 4.52115e-11 4.5431e-11 4.12519e-11 4.14196e-11 4.5431e-11 4.56539e-11 4.52115e-11 4.5431e-11 4.93899e-11 4.96761e-11 4.5431e-11 4.56539e-11 4.96761e-11 4.99602e-11 4.14196e-11 4.15701e-11 4.56539e-11 4.58572e-11 4.15701e-11 4.16832e-11 4.58572e-11 4.6022e-11 4.56539e-11 4.58572e-11 4.99602e-11 5.02214e-11 4.58572e-11 4.6022e-11 5.02214e-11 5.04426e-11 4.93899e-11 4.96761e-11 5.36103e-11 5.39697e-11 4.96761e-11 4.99602e-11 5.39697e-11 5.43204e-11 5.36103e-11 5.39697e-11 5.78542e-11 5.82923e-11 5.39697e-11 5.43204e-11 5.82923e-11 5.87143e-11 4.99602e-11 5.02214e-11 5.43204e-11 5.46443e-11 5.02214e-11 5.04426e-11 5.46443e-11 5.49264e-11 5.43204e-11 5.46443e-11 5.87143e-11 5.9105e-11 5.46443e-11 5.49264e-11 5.9105e-11 5.9452e-11 4.16832e-11 4.17432e-11 4.6022e-11 4.61333e-11 4.17432e-11 4.17376e-11 4.61333e-11 4.61788e-11 4.6022e-11 4.61333e-11 5.04426e-11 5.061e-11 4.61333e-11 4.61788e-11 5.061e-11 5.07119e-11 4.17376e-11 4.16559e-11 4.61788e-11 4.61483e-11 4.16559e-11 4.14894e-11 4.61483e-11 4.60328e-11 4.61788e-11 4.61483e-11 5.07119e-11 5.07384e-11 4.61483e-11 4.60328e-11 5.07384e-11 5.06809e-11 5.04426e-11 5.061e-11 5.49264e-11 5.51543e-11 5.061e-11 5.07119e-11 5.51543e-11 5.53174e-11 5.49264e-11 5.51543e-11 5.9452e-11 5.97444e-11 5.51543e-11 5.53174e-11 5.97444e-11 5.99734e-11 5.07119e-11 5.07384e-11 5.53174e-11 5.54068e-11 5.07384e-11 5.06809e-11 5.54068e-11 5.54142e-11 5.53174e-11 5.54068e-11 5.99734e-11 6.0131e-11 5.54068e-11 5.54142e-11 6.0131e-11 6.021e-11 5.78542e-11 5.82923e-11 6.21007e-11 6.26221e-11 5.82923e-11 5.87143e-11 6.26221e-11 6.31194e-11 6.21007e-11 6.26221e-11 6.63278e-11 6.69361e-11 6.26221e-11 6.31194e-11 6.69361e-11 6.75119e-11 5.87143e-11 5.9105e-11 6.31194e-11 6.35807e-11 5.9105e-11 5.9452e-11 6.35807e-11 6.39959e-11 6.31194e-11 6.35807e-11 6.75119e-11 6.80465e-11 6.35807e-11 6.39959e-11 6.80465e-11 6.85328e-11 6.63278e-11 6.69361e-11 7.0512e-11 7.12098e-11 6.69361e-11 6.75119e-11 7.12098e-11 7.18663e-11 7.0512e-11 7.12098e-11 7.4629e-11 7.54179e-11 7.12098e-11 7.18663e-11 7.54179e-11 7.61565e-11 6.75119e-11 6.80465e-11 7.18663e-11 7.24764e-11 6.80465e-11 6.85328e-11 7.24764e-11 7.30358e-11 7.18663e-11 7.24764e-11 7.61565e-11 7.68433e-11 7.24764e-11 7.30358e-11 7.68433e-11 7.74769e-11 5.9452e-11 5.97444e-11 6.39959e-11 6.43566e-11 5.97444e-11 5.99734e-11 6.43566e-11 6.46554e-11 6.39959e-11 6.43566e-11 6.85328e-11 6.89646e-11 6.43566e-11 6.46554e-11 6.89646e-11 6.93366e-11 5.99734e-11 6.0131e-11 6.46554e-11 6.4886e-11 6.0131e-11 6.021e-11 6.4886e-11 6.50425e-11 6.46554e-11 6.4886e-11 6.93366e-11 6.96443e-11 6.4886e-11 6.50425e-11 6.96443e-11 6.98832e-11 6.85328e-11 6.89646e-11 7.30358e-11 7.35408e-11 6.89646e-11 6.93366e-11 7.35408e-11 7.39886e-11 7.30358e-11 7.35408e-11 7.74769e-11 7.80565e-11 7.35408e-11 7.39886e-11 7.80565e-11 7.85813e-11 6.93366e-11 6.96443e-11 7.39886e-11 7.43762e-11 6.96443e-11 6.98832e-11 7.43762e-11 7.47014e-11 7.39886e-11 7.43762e-11 7.85813e-11 7.90508e-11 7.43762e-11 7.47014e-11 7.90508e-11 7.94645e-11 4.14894e-11 4.12299e-11 4.60328e-11 4.58238e-11 4.12299e-11 4.08696e-11 4.58238e-11 4.55131e-11 4.60328e-11 4.58238e-11 5.06809e-11 5.0531e-11 4.58238e-11 4.55131e-11 5.0531e-11 5.02802e-11 4.08696e-11 4.04003e-11 4.55131e-11 4.5092e-11 4.04003e-11 3.98133e-11 4.5092e-11 4.45508e-11 4.55131e-11 4.5092e-11 5.02802e-11 4.99197e-11 4.5092e-11 4.45508e-11 4.99197e-11 4.94394e-11 5.06809e-11 5.0531e-11 5.54142e-11 5.53318e-11 5.0531e-11 5.02802e-11 5.53318e-11 5.51514e-11 5.54142e-11 5.53318e-11 6.021e-11 6.02032e-11 5.53318e-11 5.51514e-11 6.02032e-11 6.01035e-11 5.02802e-11 4.99197e-11 5.51514e-11 5.48644e-11 4.99197e-11 4.94394e-11 5.48644e-11 5.4461e-11 5.51514e-11 5.48644e-11 6.01035e-11 5.99028e-11 5.48644e-11 5.4461e-11 5.99028e-11 5.95921e-11 3.98133e-11 3.9099e-11 4.45508e-11 4.38789e-11 3.9099e-11 3.82468e-11 4.38789e-11 4.30642e-11 4.45508e-11 4.38789e-11 4.94394e-11 4.88281e-11 4.38789e-11 4.30642e-11 4.88281e-11 4.80727e-11 3.82468e-11 3.72448e-11 4.30642e-11 4.20927e-11 3.72448e-11 3.60802e-11 4.20927e-11 4.09488e-11 4.30642e-11 4.20927e-11 4.80727e-11 4.71581e-11 4.20927e-11 4.09488e-11 4.71581e-11 4.60668e-11 4.94394e-11 4.88281e-11 5.4461e-11 5.39299e-11 4.88281e-11 4.80727e-11 5.39299e-11 5.3258e-11 5.4461e-11 5.39299e-11 5.95921e-11 5.9161e-11 5.39299e-11 5.3258e-11 5.9161e-11 5.8597e-11 4.80727e-11 4.71581e-11 5.3258e-11 5.24297e-11 4.71581e-11 4.60668e-11 5.24297e-11 5.14269e-11 5.3258e-11 5.24297e-11 5.8597e-11 5.78854e-11 5.24297e-11 5.14269e-11 5.78854e-11 5.70087e-11 6.021e-11 6.02032e-11 6.50425e-11 6.51189e-11 6.02032e-11 6.01035e-11 6.51189e-11 6.51092e-11 6.50425e-11 6.51189e-11 6.98832e-11 7.00491e-11 6.51189e-11 6.51092e-11 7.00491e-11 7.01374e-11 6.01035e-11 5.99028e-11 6.51092e-11 6.50066e-11 5.99028e-11 5.95921e-11 6.50066e-11 6.48035e-11 6.51092e-11 6.50066e-11 7.01374e-11 7.01431e-11 6.50066e-11 6.48035e-11 7.01431e-11 7.00604e-11 6.98832e-11 7.00491e-11 7.47014e-11 7.49616e-11 7.00491e-11 7.01374e-11 7.49616e-11 7.5154e-11 7.47014e-11 7.49616e-11 7.94645e-11 7.98219e-11 7.49616e-11 7.5154e-11 7.98219e-11 8.01222e-11 7.01374e-11 7.01431e-11 7.5154e-11 7.52757e-11 7.01431e-11 7.00604e-11 7.52757e-11 7.5323e-11 7.5154e-11 7.52757e-11 8.01222e-11 8.03647e-11 7.52757e-11 7.5323e-11 8.03647e-11 8.05483e-11 5.95921e-11 5.9161e-11 6.48035e-11 6.44909e-11 5.9161e-11 5.8597e-11 6.44909e-11 6.4058e-11 6.48035e-11 6.44909e-11 7.00604e-11 6.98823e-11 6.44909e-11 6.4058e-11 6.98823e-11 6.96007e-11 5.8597e-11 5.78854e-11 6.4058e-11 6.34921e-11 5.78854e-11 5.70087e-11 6.34921e-11 6.27778e-11 6.4058e-11 6.34921e-11 6.96007e-11 6.92058e-11 6.34921e-11 6.27778e-11 6.92058e-11 6.86857e-11 7.00604e-11 6.98823e-11 7.5323e-11 7.52918e-11 6.98823e-11 6.96007e-11 7.52918e-11 7.5177e-11 7.5323e-11 7.52918e-11 8.05483e-11 8.06716e-11 7.52918e-11 7.5177e-11 8.06716e-11 8.0733e-11 6.96007e-11 6.92058e-11 7.5177e-11 7.49725e-11 6.92058e-11 6.86857e-11 7.49725e-11 7.46711e-11 7.5177e-11 7.49725e-11 8.0733e-11 8.07308e-11 7.49725e-11 7.46711e-11 8.07308e-11 8.0663e-11 4.78351e-12 3.59957e-12 8.07248e-12 6.95195e-12 3.59957e-12 2.36678e-12 6.95195e-12 5.783e-12 8.07248e-12 6.95195e-12 1.15286e-11 1.04235e-11 6.95195e-12 5.783e-12 1.04235e-11 9.26068e-12 2.36678e-12 1.11454e-12 5.783e-12 4.58845e-12 1.11454e-12 -1.22796e-13 4.58845e-12 3.39478e-12 5.783e-12 4.58845e-12 9.26068e-12 8.05722e-12 4.58845e-12 3.39478e-12 8.05722e-12 6.83316e-12 1.15286e-11 1.04235e-11 1.51467e-11 1.40219e-11 1.04235e-11 9.26068e-12 1.40219e-11 1.28232e-11 1.51467e-11 1.40219e-11 1.89333e-11 1.77657e-11 1.40219e-11 1.28232e-11 1.77657e-11 1.65034e-11 9.26068e-12 8.05722e-12 1.28232e-11 1.15624e-11 8.05722e-12 6.83316e-12 1.15624e-11 1.02545e-11 1.28232e-11 1.15624e-11 1.65034e-11 1.51533e-11 1.15624e-11 1.02545e-11 1.51533e-11 1.37257e-11 -1.22796e-13 -1.30653e-12 3.39478e-12 2.23153e-12 -1.30653e-12 -2.39482e-12 2.23153e-12 1.1304e-12 3.39478e-12 2.23153e-12 6.83316e-12 5.61136e-12 2.23153e-12 1.1304e-12 5.61136e-12 4.41693e-12 -2.39482e-12 -3.34449e-12 1.1304e-12 1.23838e-13 -3.34449e-12 -4.11366e-12 1.23838e-13 -7.56858e-13 1.1304e-12 1.23838e-13 4.41693e-12 3.27644e-12 1.23838e-13 -7.56858e-13 3.27644e-12 2.21654e-12 6.83316e-12 5.61136e-12 1.02545e-11 8.91726e-12 5.61136e-12 4.41693e-12 8.91726e-12 7.57174e-12 1.02545e-11 8.91726e-12 1.37257e-11 1.22342e-11 8.91726e-12 7.57174e-12 1.22342e-11 1.06972e-11 4.41693e-12 3.27644e-12 7.57174e-12 6.2418e-12 3.27644e-12 2.21654e-12 6.2418e-12 4.95342e-12 7.57174e-12 6.2418e-12 1.06972e-11 9.13763e-12 6.2418e-12 4.95342e-12 9.13763e-12 7.58302e-12 1.89333e-11 1.77657e-11 2.2902e-11 2.16805e-11 1.77657e-11 1.65034e-11 2.16805e-11 2.03404e-11 2.2902e-11 2.16805e-11 2.70706e-11 2.57952e-11 2.16805e-11 2.03404e-11 2.57952e-11 2.43759e-11 1.65034e-11 1.51533e-11 2.03404e-11 1.88838e-11 1.51533e-11 1.37257e-11 1.88838e-11 1.73162e-11 2.03404e-11 1.88838e-11 2.43759e-11 2.28098e-11 1.88838e-11 1.73162e-11 2.28098e-11 2.10973e-11 2.70706e-11 2.57952e-11 3.14579e-11 3.01392e-11 2.57952e-11 2.43759e-11 3.01392e-11 2.86517e-11 3.14579e-11 3.01392e-11 3.60802e-11 3.47389e-11 3.01392e-11 2.86517e-11 3.47389e-11 3.32066e-11 2.43759e-11 2.28098e-11 2.86517e-11 2.69872e-11 2.28098e-11 2.10973e-11 2.69872e-11 2.514e-11 2.86517e-11 2.69872e-11 3.32066e-11 3.1469e-11 2.69872e-11 2.514e-11 3.1469e-11 2.95133e-11 1.37257e-11 1.22342e-11 1.73162e-11 1.56476e-11 1.22342e-11 1.06972e-11 1.56476e-11 1.38934e-11 1.73162e-11 1.56476e-11 2.10973e-11 1.92436e-11 1.56476e-11 1.38934e-11 1.92436e-11 1.72603e-11 1.06972e-11 9.13763e-12 1.38934e-11 1.20759e-11 9.13763e-12 7.58302e-12 1.20759e-11 1.02252e-11 1.38934e-11 1.20759e-11 1.72603e-11 1.5168e-11 1.20759e-11 1.02252e-11 1.5168e-11 1.29984e-11 2.10973e-11 1.92436e-11 2.514e-11 2.3109e-11 1.92436e-11 1.72603e-11 2.3109e-11 2.09e-11 2.514e-11 2.3109e-11 2.95133e-11 2.73306e-11 2.3109e-11 2.09e-11 2.73306e-11 2.49179e-11 1.72603e-11 1.5168e-11 2.09e-11 1.85294e-11 1.5168e-11 1.29984e-11 1.85294e-11 1.60272e-11 2.09e-11 1.85294e-11 2.49179e-11 2.2283e-11 1.85294e-11 1.60272e-11 2.2283e-11 1.94494e-11 -4.11366e-12 -4.66501e-12 -7.56858e-13 -1.48391e-12 -4.66501e-12 -4.9697e-12 -1.48391e-12 -2.03586e-12 -7.56858e-13 -1.48391e-12 2.21654e-12 1.26224e-12 -1.48391e-12 -2.03586e-12 1.26224e-12 4.3458e-13 -4.9697e-12 -5.01144e-12 -2.03586e-12 -2.40042e-12 -5.01144e-12 -4.79026e-12 -2.40042e-12 -2.57715e-12 -2.03586e-12 -2.40042e-12 4.3458e-13 -2.52036e-13 -2.40042e-12 -2.57715e-12 -2.52036e-13 -7.92541e-13 2.21654e-12 1.26224e-12 4.95342e-12 3.73336e-12 1.26224e-12 4.3458e-13 3.73336e-12 2.60691e-12 4.95342e-12 3.73336e-12 7.58302e-12 6.06478e-12 3.73336e-12 2.60691e-12 6.06478e-12 4.61584e-12 4.3458e-13 -2.52036e-13 2.60691e-12 1.59491e-12 -2.52036e-13 -7.92541e-13 1.59491e-12 7.10111e-13 2.60691e-12 1.59491e-12 4.61584e-12 3.26704e-12 1.59491e-12 7.10111e-13 3.26704e-12 2.04194e-12 -4.79026e-12 -4.32509e-12 -2.57715e-12 -2.57928e-12 -4.32509e-12 -3.65452e-12 -2.57928e-12 -2.43426e-12 -2.57715e-12 -2.57928e-12 -7.92541e-13 -1.1935e-12 -2.57928e-12 -2.43426e-12 -1.1935e-12 -1.4743e-12 -3.65452e-12 -2.83523e-12 -2.43426e-12 -2.18261e-12 -2.83523e-12 -7.34378e-11 -2.18261e-12 -1.87491e-12 -2.43426e-12 -2.18261e-12 -1.4743e-12 -1.66663e-12 -2.18261e-12 -1.87491e-12 -1.66663e-12 -1.81201e-12 -7.92541e-13 -1.1935e-12 7.10111e-13 -4.64193e-14 -1.1935e-12 -1.4743e-12 -4.64193e-14 -6.87853e-13 7.10111e-13 -4.64193e-14 2.04194e-12 9.51115e-13 -4.64193e-14 -6.87853e-13 9.51115e-13 -1.2777e-14 -1.4743e-12 -1.66663e-12 -6.87853e-13 -1.24205e-12 -1.66663e-12 -1.81201e-12 -1.24205e-12 -1.74912e-12 -6.87853e-13 -1.24205e-12 -1.2777e-14 -8.76986e-13 -1.24205e-12 -1.74912e-12 -8.76986e-13 -1.68622e-12 7.58302e-12 6.06478e-12 1.02252e-11 8.37868e-12 6.06478e-12 4.61584e-12 8.37868e-12 6.57939e-12 1.02252e-11 8.37868e-12 1.29984e-11 1.07947e-11 8.37868e-12 6.57939e-12 1.07947e-11 8.61137e-12 4.61584e-12 3.26704e-12 6.57939e-12 4.87155e-12 3.26704e-12 2.04194e-12 4.87155e-12 3.29355e-12 6.57939e-12 4.87155e-12 8.61137e-12 6.5094e-12 4.87155e-12 3.29355e-12 6.5094e-12 4.54731e-12 1.29984e-11 1.07947e-11 1.60272e-11 1.34404e-11 1.07947e-11 8.61137e-12 1.34404e-11 1.08341e-11 1.60272e-11 1.34404e-11 1.94494e-11 1.64621e-11 1.34404e-11 1.08341e-11 1.64621e-11 1.33928e-11 8.61137e-12 6.5094e-12 1.08341e-11 8.28877e-12 6.5094e-12 4.54731e-12 8.28877e-12 5.88969e-12 1.08341e-11 8.28877e-12 1.33928e-11 1.03412e-11 8.28877e-12 5.88969e-12 1.03412e-11 7.42661e-12 2.04194e-12 9.51115e-13 3.29355e-12 1.86898e-12 9.51115e-13 -1.2777e-14 1.86898e-12 5.97924e-13 3.29355e-12 1.86898e-12 4.54731e-12 2.76783e-12 1.86898e-12 5.97924e-13 2.76783e-12 1.18299e-12 -1.2777e-14 -8.76986e-13 5.97924e-13 -5.47971e-13 -8.76986e-13 -1.68622e-12 -5.47971e-13 -1.62333e-12 5.97924e-13 -5.47971e-13 1.18299e-12 -2.3646e-13 -5.47971e-13 -1.62333e-12 -2.3646e-13 -1.56043e-12 4.54731e-12 2.76783e-12 5.88969e-12 3.70862e-12 2.76783e-12 1.18299e-12 3.70862e-12 1.7789e-12 5.88969e-12 3.70862e-12 7.42661e-12 4.76436e-12 3.70862e-12 1.7789e-12 4.76436e-12 2.42671e-12 1.18299e-12 -2.3646e-13 1.7789e-12 7.38785e-14 -2.3646e-13 -1.56043e-12 7.38785e-14 -1.49754e-12 1.7789e-12 7.38785e-14 2.42671e-12 3.99873e-13 7.38785e-14 -1.49754e-12 3.99873e-13 -1.43464e-12 3.60802e-11 3.47389e-11 4.09488e-11 3.96151e-11 3.47389e-11 3.32066e-11 3.96151e-11 3.80726e-11 4.09488e-11 3.96151e-11 4.60668e-11 4.47788e-11 3.96151e-11 3.80726e-11 4.47788e-11 4.32712e-11 3.32066e-11 3.1469e-11 3.80726e-11 3.63012e-11 3.1469e-11 2.95133e-11 3.63012e-11 3.42805e-11 3.80726e-11 3.63012e-11 4.32712e-11 4.15187e-11 3.63012e-11 3.42805e-11 4.15187e-11 3.94934e-11 4.60668e-11 4.47788e-11 5.14269e-11 5.02282e-11 4.47788e-11 4.32712e-11 5.02282e-11 4.88086e-11 5.14269e-11 5.02282e-11 5.70087e-11 5.59459e-11 5.02282e-11 4.88086e-11 5.59459e-11 5.46718e-11 4.32712e-11 4.15187e-11 4.88086e-11 4.7139e-11 4.15187e-11 3.94934e-11 4.7139e-11 4.51856e-11 4.88086e-11 4.7139e-11 5.46718e-11 5.31563e-11 4.7139e-11 4.51856e-11 5.31563e-11 5.1363e-11 2.95133e-11 2.73306e-11 3.42805e-11 3.19916e-11 2.73306e-11 2.49179e-11 3.19916e-11 2.94202e-11 3.42805e-11 3.19916e-11 3.94934e-11 3.71663e-11 3.19916e-11 2.94202e-11 3.71663e-11 3.45088e-11 2.49179e-11 2.2283e-11 2.94202e-11 2.65602e-11 2.2283e-11 1.94494e-11 2.65602e-11 2.34208e-11 2.94202e-11 2.65602e-11 3.45088e-11 3.14963e-11 2.65602e-11 2.34208e-11 3.14963e-11 2.81151e-11 3.94934e-11 3.71663e-11 4.51856e-11 4.29102e-11 3.71663e-11 3.45088e-11 4.29102e-11 4.027e-11 4.51856e-11 4.29102e-11 5.1363e-11 4.92477e-11 4.29102e-11 4.027e-11 4.92477e-11 4.67574e-11 3.45088e-11 3.14963e-11 4.027e-11 3.72195e-11 3.14963e-11 2.81151e-11 3.72195e-11 3.37147e-11 4.027e-11 3.72195e-11 4.67574e-11 4.38281e-11 3.72195e-11 3.37147e-11 4.38281e-11 4.03851e-11 5.70087e-11 5.59459e-11 6.27778e-11 6.18964e-11 5.59459e-11 5.46718e-11 6.18